/*--------------------------------*- C++ -*----------------------------------*\
| =========                 |                                                 |
| \\      /  F ield         | OpenFOAM: The Open Source CFD Toolbox           |
|  \\    /   O peration     | Version:  2412                                  |
|   \\  /    A nd           | Website:  www.openfoam.com                      |
|    \\/     M anipulation  |                                                 |
\*---------------------------------------------------------------------------*/
FoamFile
{
    version     2.0;
    format      ascii;
    arch        "LSB;label=32;scalar=64";
    class       volScalarField;
    location    "0.435";
    object      Co;
}
// * * * * * * * * * * * * * * * * * * * * * * * * * * * * * * * * * * * * * //

dimensions      [0 0 0 0 0 0 0];

internalField   nonuniform List<scalar> 
12600
(
0.314288
0.176464
0.0999892
0.0629522
0.0450005
0.0350887
0.0286931
0.0241135
0.0206394
0.0179028
0.0156873
0.013856
0.0123178
0.0110088
0.00988294
0.00890587
0.00805152
0.00729966
0.00663431
0.00604266
0.00551432
0.00504075
0.00461486
0.0042307
0.00388327
0.00356831
0.00328217
0.00302169
0.00278415
0.00256719
0.00236871
0.00218689
0.00202012
0.00186698
0.0017262
0.00159666
0.00147734
0.00136734
0.00126586
0.00117217
0.0010856
0.00100556
0.000931517
0.000862979
0.000799504
0.000740687
0.000686161
0.000635591
0.000588672
0.000545122
0.000504684
0.000467124
0.000432227
0.000399795
0.000369647
0.000341615
0.000315545
0.000291295
0.000268736
0.000247748
0.000228215
0.00021004
0.000193122
0.00017738
0.000162727
0.000149098
0.000136413
0.000124617
0.000113641
0.000103442
9.39574e-05
8.51523e-05
7.69709e-05
6.93823e-05
6.23394e-05
5.58151e-05
4.97719e-05
4.41852e-05
3.90219e-05
3.42695e-05
2.9885e-05
2.58804e-05
2.21824e-05
1.88383e-05
1.57244e-05
1.29419e-05
1.03463e-05
8.06816e-06
5.94977e-06
4.0984e-06
2.40604e-06
1.37184e-06
1.69444e-06
2.83937e-06
3.80449e-06
4.8613e-06
5.72535e-06
6.42426e-06
6.85361e-06
7.52154e-06
8.98359e-06
1.10942e-05
1.42764e-05
1.77217e-05
1.9835e-05
1.86524e-05
1.64082e-05
1.07551e-05
5.55943e-06
4.99373e-06
5.80924e-06
6.7971e-06
7.09354e-06
9.22676e-06
1.1061e-05
1.3558e-05
1.69408e-05
1.93549e-05
2.37543e-05
2.7638e-05
0.477146
0.37603
0.276135
0.202391
0.153137
0.120588
0.0982966
0.0822113
0.0700499
0.0605195
0.0528446
0.0465323
0.0412533
0.0367789
0.0329443
0.0296275
0.0267361
0.0241986
0.0219588
0.0199719
0.0182015
0.0166179
0.0151964
0.0139165
0.012761
0.0117151
0.0107663
0.00990388
0.00911843
0.00840188
0.00774718
0.00714812
0.00659926
0.00609576
0.00563336
0.00520826
0.00481707
0.00445676
0.00412461
0.00381818
0.00353526
0.00327389
0.00303225
0.00280872
0.00260183
0.00241025
0.00223274
0.0020682
0.00191561
0.00177406
0.00164268
0.00152071
0.00140744
0.00130221
0.00120443
0.00111354
0.00102903
0.000950458
0.000877376
0.000809399
0.000746152
0.000687313
0.000632552
0.00058161
0.000534193
0.000490093
0.000449043
0.000410875
0.000375353
0.000342346
0.000311642
0.000283133
0.000256636
0.000232051
0.000209226
0.000188072
0.000168464
0.000150327
0.000133545
0.000118088
0.000103802
9.07491e-05
7.8661e-05
6.77424e-05
5.75322e-05
4.84268e-05
3.98753e-05
3.23947e-05
2.53813e-05
1.92679e-05
1.36214e-05
8.75504e-06
5.12192e-06
5.7968e-06
8.90466e-06
1.2458e-05
1.50831e-05
1.72943e-05
1.85409e-05
2.12998e-05
2.64984e-05
3.37519e-05
4.38071e-05
5.39414e-05
5.72827e-05
5.22071e-05
4.8465e-05
3.27842e-05
2.14502e-05
2.11135e-05
2.19517e-05
2.47065e-05
2.59199e-05
3.38292e-05
3.94992e-05
4.80935e-05
5.85914e-05
6.59078e-05
7.99147e-05
9.08765e-05
0.511602
0.467939
0.396821
0.325164
0.264383
0.216424
0.179611
0.151337
0.129286
0.111745
0.0975205
0.0857851
0.0759607
0.0676341
0.0605031
0.0543416
0.0489771
0.0442757
0.0401318
0.0364609
0.0331947
0.0302771
0.0276617
0.02531
0.0231895
0.0212724
0.0195353
0.0179581
0.0165232
0.0152155
0.0140219
0.0129307
0.0119319
0.0110164
0.0101764
0.00940473
0.00869518
0.00804211
0.00744052
0.00688588
0.00637415
0.00590167
0.00546513
0.00506156
0.00468823
0.00434269
0.00402271
0.00372626
0.00345147
0.00319667
0.00296029
0.00274092
0.00253727
0.00234815
0.00217248
0.00200924
0.00185753
0.00171649
0.00158535
0.00146339
0.00134995
0.00124443
0.00114624
0.00105492
0.000969918
0.000890868
0.000817287
0.000748874
0.000685199
0.000626026
0.000570973
0.000519847
0.000472314
0.000428202
0.000387234
0.000349245
0.000314014
0.0002814
0.000251199
0.000223353
0.000197583
0.00017402
0.000152156
0.000132419
0.000113893
9.73954e-05
8.17943e-05
6.82072e-05
5.53421e-05
4.41864e-05
3.37489e-05
2.48738e-05
1.64936e-05
1.11303e-05
1.18613e-05
1.84379e-05
2.27571e-05
2.65971e-05
2.85067e-05
3.45768e-05
4.47537e-05
5.87406e-05
7.65675e-05
9.33056e-05
9.3013e-05
8.36281e-05
8.43032e-05
6.01208e-05
4.65195e-05
4.63551e-05
4.47083e-05
4.88318e-05
5.15788e-05
6.76598e-05
7.76091e-05
9.39945e-05
0.000112307
0.000124728
0.000149554
0.000167343
0.503564
0.490384
0.452584
0.402318
0.350044
0.301464
0.259034
0.22319
0.193341
0.168548
0.147869
0.130497
0.115779
0.103205
0.0923789
0.0829904
0.0747963
0.0676037
0.0612577
0.055633
0.0506271
0.0461555
0.0421479
0.0385455
0.0352983
0.0323642
0.029707
0.0272955
0.0251031
0.0231062
0.0212845
0.0196203
0.0180978
0.0167032
0.0154243
0.0142502
0.0131712
0.0121787
0.0112649
0.0104229
0.00964643
0.00892989
0.0082682
0.00765676
0.00709142
0.0065684
0.00608428
0.00563595
0.00522055
0.00483551
0.00447846
0.00414721
0.00383982
0.00355445
0.00328945
0.00304328
0.00281456
0.00260198
0.00240437
0.00222064
0.00204977
0.00189086
0.00174301
0.00160552
0.00147755
0.00135856
0.0012478
0.00114481
0.00104896
0.000959868
0.000876972
0.000799974
0.000728373
0.000661906
0.000600155
0.00054287
0.000489716
0.000440476
0.000394846
0.000352732
0.00031372
0.000278005
0.000244833
0.000214869
0.00018668
0.000161571
0.00013772
0.000116994
9.72206e-05
8.01428e-05
6.39897e-05
5.04151e-05
3.7388e-05
2.63944e-05
1.80137e-05
2.18371e-05
2.77974e-05
3.34594e-05
3.60058e-05
4.66222e-05
6.27229e-05
8.47009e-05
0.000110535
0.000133137
0.000124005
0.000112762
0.00012276
9.40949e-05
8.26674e-05
8.06383e-05
7.47716e-05
7.9845e-05
8.50883e-05
0.000111161
0.000125849
0.000151479
0.000177802
0.000195744
0.000231359
0.000255911
0.487412
0.482664
0.464535
0.434727
0.398186
0.359207
0.320879
0.2851
0.252788
0.224189
0.199158
0.17736
0.158398
0.141879
0.127447
0.114796
0.103663
0.0938282
0.0851094
0.0773526
0.0704294
0.0642313
0.058667
0.0536585
0.0491397
0.0450535
0.0413511
0.03799
0.0349334
0.0321493
0.0296094
0.0272892
0.0251669
0.0232233
0.0214412
0.0198056
0.0183028
0.0169209
0.0156491
0.0144775
0.0133974
0.0124011
0.0114813
0.0106316
0.00984629
0.00911999
0.00844793
0.00782574
0.00724946
0.00671544
0.00622038
0.00576126
0.0053353
0.00493997
0.00457295
0.0042321
0.00391548
0.00362127
0.00334782
0.00309364
0.00285727
0.00263749
0.00243304
0.00224291
0.00206599
0.00190146
0.00174832
0.00160593
0.00147339
0.0013502
0.00123555
0.00112904
0.00102998
0.000937989
0.0008525
0.000773161
0.000699507
0.000631234
0.000567922
0.000509433
0.000455206
0.000405505
0.000359302
0.000317526
0.00027816
0.000243063
0.00020962
0.000180584
0.00015272
0.000128721
0.000105816
8.67447e-05
6.8177e-05
5.26913e-05
3.75248e-05
3.04547e-05
2.90653e-05
3.68223e-05
4.01048e-05
5.64585e-05
7.9145e-05
0.000109962
0.000143427
0.000170479
0.000147212
0.000139158
0.000162365
0.000141437
0.000136759
0.000124039
0.000112836
0.000118488
0.000127333
0.000164747
0.000184529
0.000220643
0.000254647
0.000278581
0.000323907
0.000355203
0.473255
0.467619
0.456732
0.438885
0.415192
0.387528
0.35778
0.32758
0.298153
0.270306
0.244499
0.220928
0.199609
0.180444
0.163277
0.147924
0.134197
0.121916
0.110917
0.10105
0.0921833
0.0842022
0.0770049
0.0705028
0.0646185
0.0592843
0.0544412
0.050037
0.0460264
0.042369
0.0390295
0.0359765
0.0331822
0.030622
0.0282737
0.0261178
0.0241368
0.0223148
0.0206377
0.0190928
0.0176687
0.0163549
0.0151423
0.0140222
0.012987
0.0120298
0.0111443
0.0103245
0.00956538
0.00886204
0.00821015
0.00760566
0.00704496
0.00652465
0.00604169
0.00559324
0.00517673
0.00478976
0.00443016
0.00409592
0.00378515
0.00349621
0.00322745
0.00297752
0.00274497
0.00252871
0.00232742
0.00214025
0.00196602
0.00180405
0.0016533
0.00151321
0.00138289
0.00126185
0.00114932
0.00104484
0.000947806
0.000857807
0.000774292
0.000697074
0.000625423
0.000559681
0.000498516
0.000443145
0.000390901
0.000344266
0.00029973
0.000261057
0.000223777
0.000191722
0.000160906
0.00013542
0.000110298
8.9574e-05
6.90127e-05
5.56272e-05
3.68717e-05
3.55024e-05
3.97136e-05
6.2901e-05
9.2509e-05
0.00013259
0.000172696
0.000202208
0.00015959
0.000162197
0.000201524
0.000195751
0.000203549
0.000176764
0.000159639
0.000165495
0.000179089
0.000228701
0.000253748
0.000301363
0.000342139
0.000372616
0.00042558
0.000463618
0.462
0.453706
0.443899
0.430869
0.414341
0.394757
0.372849
0.34946
0.325407
0.301389
0.277958
0.255517
0.234334
0.214562
0.196263
0.179437
0.164035
0.149981
0.137183
0.125542
0.114961
0.105343
0.0965974
0.0886421
0.0814003
0.074803
0.0687875
0.0632977
0.0582829
0.0536979
0.049502
0.0456587
0.0421353
0.0389025
0.0359338
0.0332055
0.0306963
0.0283869
0.0262599
0.0242995
0.0224916
0.0208232
0.0192828
0.0178596
0.0165441
0.0153275
0.0142018
0.0131597
0.0121946
0.0113004
0.0104717
0.00970319
0.00899038
0.00832896
0.00771504
0.00714502
0.00661561
0.00612379
0.00566676
0.00524198
0.00484705
0.00447987
0.00413834
0.00382074
0.00352522
0.00325038
0.00299457
0.00275666
0.00253519
0.00232926
0.00213757
0.0019594
0.00179362
0.00163958
0.00149633
0.00136328
0.00123965
0.00112492
0.00101838
0.000919802
0.000828256
0.000744177
0.000665881
0.000594914
0.00052788
0.000467965
0.000410649
0.000360837
0.000312653
0.000271255
0.000231225
0.000198267
0.000165441
0.00013862
0.000111699
9.44754e-05
6.86306e-05
5.06964e-05
3.74602e-05
6.45112e-05
0.000101005
0.00015036
0.000195512
0.000225043
0.000158108
0.000180981
0.000239012
0.000255951
0.00028282
0.000239144
0.000215947
0.000221556
0.000240987
0.00030315
0.000333382
0.000393306
0.00043928
0.000476996
0.000534625
0.000579339
0.452703
0.442339
0.431771
0.419949
0.406407
0.391102
0.374215
0.356051
0.336986
0.3174
0.297656
0.278073
0.258924
0.240425
0.222738
0.205975
0.190205
0.175458
0.161735
0.149014
0.137256
0.126413
0.116431
0.107253
0.0988186
0.0910728
0.0839604
0.0774298
0.0714326
0.065924
0.0608625
0.0562101
0.0519319
0.0479959
0.0443731
0.0410367
0.0379627
0.035129
0.0325155
0.0301038
0.0278773
0.0258208
0.0239204
0.0221634
0.0205384
0.0190347
0.0176428
0.0163537
0.0151594
0.0140526
0.0130265
0.0120748
0.0111919
0.0103725
0.00961185
0.0089055
0.00824941
0.00763984
0.00707334
0.00654678
0.00605718
0.00560194
0.00517848
0.00478464
0.00441815
0.00407727
0.00375995
0.0034648
0.00318999
0.00293442
0.00269647
0.00247524
0.00226933
0.00207795
0.00189991
0.00173447
0.00158066
0.00143786
0.00130516
0.0011823
0.0010681
0.00096312
0.000865265
0.000776461
0.000692492
0.000617338
0.000545352
0.000482704
0.000421945
0.000369745
0.000319035
0.000277387
0.000235556
0.00020165
0.000167259
0.000145442
0.000112366
8.99512e-05
6.34575e-05
7.37683e-05
0.000102508
0.000160774
0.000208795
0.000235614
0.000139815
0.00019439
0.000306058
0.000352568
0.000374454
0.000311609
0.000282516
0.000287291
0.000313478
0.000388039
0.000423015
0.000495888
0.000544748
0.000590639
0.000649204
0.000700343
0.444677
0.432984
0.421501
0.409645
0.397053
0.383589
0.369268
0.354185
0.338484
0.322332
0.305899
0.289354
0.272861
0.256571
0.240618
0.225121
0.210178
0.195865
0.182239
0.169336
0.157175
0.145759
0.135078
0.125115
0.115841
0.107226
0.0992345
0.0918306
0.0849771
0.0786374
0.0727758
0.067358
0.0623515
0.0577253
0.0534507
0.0495006
0.04585
0.0424756
0.0393558
0.0364708
0.0338022
0.0313331
0.029048
0.0269326
0.0249735
0.0231588
0.0214773
0.0199188
0.0184738
0.0171337
0.0158905
0.0147369
0.0136661
0.0126719
0.0117486
0.0108909
0.010094
0.00935339
0.00866491
0.00802481
0.0074295
0.00687585
0.00636073
0.00588154
0.00543554
0.0050206
0.00463427
0.00427483
0.00394009
0.00362868
0.00333868
0.00306896
0.00281784
0.00258434
0.00236703
0.002165
0.00197709
0.00180252
0.00164019
0.0014898
0.00134988
0.00122115
0.00110104
0.00099189
0.00088859
0.000796006
0.000707232
0.000629837
0.00055463
0.000489974
0.000426937
0.000375198
0.000322893
0.000280765
0.000237628
0.000210303
0.000168847
0.000141337
0.000108462
0.000113938
0.000115921
0.000161096
0.000209246
0.000230535
0.000101866
0.000201053
0.000378546
0.000464231
0.000478472
0.000394674
0.000360066
0.000363232
0.000396795
0.000483121
0.000521923
0.000608279
0.000656914
0.000712245
0.000767488
0.000824437
0.437583
0.425036
0.412849
0.400687
0.3883
0.375546
0.362396
0.348879
0.335062
0.321024
0.306847
0.292605
0.278374
0.264225
0.250229
0.236453
0.222962
0.209817
0.197075
0.184785
0.172985
0.161708
0.150976
0.140799
0.131184
0.122126
0.113615
0.105638
0.0981742
0.0912038
0.0847029
0.078647
0.0730112
0.0677705
0.0629003
0.0583767
0.0541768
0.0502784
0.0466607
0.0433039
0.0401896
0.0373002
0.0346195
0.0321322
0.0298243
0.0276825
0.0256947
0.0238496
0.0221366
0.020546
0.0190688
0.0176967
0.0164219
0.0152374
0.0141365
0.0131132
0.0121618
0.011277
0.0104542
0.00968877
0.0089766
0.00831397
0.0076972
0.00712324
0.00658883
0.00609145
0.0056282
0.00519704
0.00479536
0.00442154
0.00407327
0.00374923
0.0034474
0.00316662
0.00290518
0.002662
0.00243568
0.00222531
0.00202955
0.00184806
0.00167906
0.00152344
0.00137806
0.0012458
0.0011205
0.00100805
0.000900124
0.000805839
0.000714087
0.000635113
0.000557897
0.000494464
0.00043003
0.00037837
0.000325024
0.000291099
0.000239979
0.000206664
0.000166535
0.000172709
0.00016817
0.000180232
0.000193366
0.000206504
4.79026e-05
0.000239
0.000492793
0.000590584
0.000595025
0.000488918
0.000449249
0.000449814
0.00049094
0.000587972
0.000629048
0.000729418
0.000773875
0.000840314
0.000887734
0.000949307
0.431241
0.418119
0.405429
0.392965
0.380553
0.368071
0.355464
0.34273
0.329906
0.317038
0.304181
0.291378
0.278669
0.266086
0.253659
0.241412
0.229371
0.21756
0.206008
0.194741
0.183789
0.173179
0.162936
0.153083
0.143636
0.13461
0.126013
0.117848
0.110116
0.10281
0.0959235
0.0894444
0.0833596
0.0776539
0.0723108
0.0673131
0.0626431
0.0582832
0.0542157
0.0504233
0.0468893
0.0435974
0.0405321
0.0376786
0.0350229
0.0325516
0.0302522
0.0281129
0.0261227
0.0242712
0.0225488
0.0209463
0.0194555
0.0180683
0.0167775
0.0155763
0.0144583
0.0134178
0.0124491
0.0115474
0.0107078
0.00992599
0.00919784
0.0085198
0.00788811
0.00729986
0.00675166
0.00624116
0.00576532
0.00532225
0.00490924
0.00452475
0.00416643
0.00383289
0.00352215
0.00323294
0.00296358
0.00271307
0.00247976
0.00226331
0.00206155
0.0018756
0.00170168
0.00154325
0.00139302
0.001258
0.00112831
0.00101475
0.000904126
0.000808745
0.000715277
0.000638328
0.000559905
0.000497208
0.000431978
0.00039017
0.000327946
0.000287988
0.000239505
0.000245469
0.000237461
0.000248947
0.000224592
0.000185136
4.33001e-05
0.000331487
0.000637824
0.000731641
0.000724393
0.00059496
0.000550619
0.000547385
0.000595678
0.000702022
0.00074303
0.000858036
0.000893537
0.000973148
0.00100837
0.0010726
0.425522
0.411999
0.39895
0.386238
0.373743
0.361363
0.349034
0.336733
0.324468
0.312266
0.300166
0.288202
0.276406
0.264803
0.253409
0.242235
0.231288
0.220572
0.210089
0.199843
0.189842
0.180094
0.17061
0.161401
0.152482
0.143864
0.135561
0.127581
0.119933
0.112623
0.105653
0.0990238
0.0927329
0.0867757
0.0811452
0.0758331
0.0708292
0.0661224
0.0617008
0.0575518
0.0536626
0.0500202
0.0466115
0.0434237
0.0404442
0.0376609
0.035062
0.0326362
0.0303726
0.028261
0.0262916
0.0244551
0.0227428
0.0211464
0.0196583
0.0182711
0.0169781
0.015773
0.0146496
0.0136025
0.0126264
0.0117166
0.0108683
0.0100777
0.00934048
0.00865337
0.00801254
0.0074153
0.0068582
0.00633907
0.00585483
0.0054037
0.00498295
0.00459103
0.00422562
0.00388529
0.00356807
0.00327282
0.00299759
0.00274207
0.00250362
0.00228366
0.00207764
0.00188974
0.00171138
0.00155085
0.00139652
0.00126106
0.00112898
0.00101487
0.000902845
0.000810325
0.000715832
0.00064038
0.000561363
0.000510175
0.000435232
0.000387627
0.00032943
0.000333968
0.000320865
0.000332314
0.000299592
0.000253847
0.000154449
0.000470938
0.000801326
0.000887575
0.000866952
0.000713444
0.000664617
0.000656235
0.000710573
0.000824623
0.000862262
0.000992703
0.00101372
0.00110886
0.00112805
0.00119199
0.420331
0.406523
0.393216
0.380311
0.367724
0.355373
0.343198
0.331161
0.319251
0.307476
0.295854
0.284411
0.273174
0.262165
0.251401
0.240896
0.230653
0.220674
0.210954
0.201487
0.192267
0.183288
0.174546
0.166038
0.157764
0.149726
0.141929
0.134378
0.127077
0.120034
0.113253
0.106739
0.100495
0.0945235
0.0888245
0.0833969
0.0782378
0.0733429
0.0687069
0.064323
0.0601836
0.0562803
0.0526042
0.0491459
0.0458958
0.042844
0.0399808
0.0372964
0.0347814
0.0324263
0.0302221
0.02816
0.0262316
0.0244288
0.0227439
0.0211695
0.0196988
0.0183252
0.0170423
0.0158445
0.014726
0.0136819
0.0127071
0.0117972
0.0109477
0.010155
0.00941489
0.00872433
0.00807951
0.00747803
0.00691643
0.00639271
0.00590382
0.00544798
0.00502259
0.00462603
0.00425603
0.00391137
0.00358974
0.00329087
0.00301162
0.00275378
0.0025119
0.00229102
0.0020811
0.00189191
0.00170983
0.00154961
0.00139327
0.00125789
0.00112476
0.00101438
0.000901512
0.000811357
0.000716405
0.000654109
0.000564635
0.000508181
0.000438613
0.00044015
0.000419936
0.000429698
0.000386338
0.000332614
0.000293174
0.000634276
0.000983533
0.00105869
0.00102314
0.00084502
0.000791555
0.000776629
0.000835035
0.000955128
0.000985006
0.00113187
0.0011323
0.00124537
0.00124563
0.0013053
0.415595
0.401581
0.388086
0.375035
0.362365
0.350012
0.337922
0.326055
0.314388
0.302912
0.29163
0.280554
0.269702
0.259089
0.248734
0.238649
0.228844
0.219322
0.210084
0.201124
0.192434
0.184004
0.175825
0.167886
0.160177
0.15269
0.14542
0.138363
0.131515
0.124877
0.118449
0.112232
0.106229
0.100442
0.094873
0.0895235
0.0843946
0.0794863
0.074798
0.0703277
0.0660728
0.0620294
0.0581933
0.0545589
0.0511205
0.0478716
0.0448053
0.0419145
0.0391919
0.03663
0.0342212
0.0319581
0.0298333
0.0278395
0.0259696
0.0242168
0.0225745
0.0210363
0.0195959
0.0182478
0.0169861
0.0158058
0.0147015
0.013669
0.0127033
0.0118006
0.0109564
0.0101676
0.00943004
0.0087411
0.00809698
0.00749554
0.0069334
0.00640864
0.00591833
0.00546074
0.00503328
0.00463467
0.00426221
0.00391577
0.00359159
0.00329193
0.00301036
0.00275287
0.00250783
0.00228666
0.00207355
0.00188554
0.00170193
0.00154252
0.00138553
0.00125477
0.001121
0.00101397
0.000900684
0.000825309
0.00071927
0.000652537
0.000569615
0.000566194
0.000536464
0.00054257
0.000485904
0.000422733
0.00046112
0.000822113
0.00118471
0.00124538
0.00119341
0.000990323
0.000931607
0.000908841
0.000968401
0.00109299
0.00110956
0.00127393
0.00124735
0.00138048
0.00136014
0.00141059
0.411252
0.397089
0.383457
0.370297
0.357559
0.345192
0.333149
0.321394
0.309896
0.298638
0.287612
0.276816
0.266259
0.255949
0.245895
0.236111
0.226605
0.217384
0.208452
0.199808
0.191449
0.183367
0.175554
0.167999
0.16069
0.153616
0.146766
0.140129
0.133697
0.127461
0.121416
0.115558
0.109882
0.104387
0.0990729
0.0939382
0.0889836
0.0842093
0.0796157
0.075203
0.0709709
0.0669186
0.0630448
0.0593475
0.0558241
0.0524715
0.049286
0.0462633
0.0433988
0.0406875
0.038124
0.0357028
0.0334183
0.0312645
0.0292357
0.027326
0.0255297
0.0238411
0.0222545
0.0207646
0.0193661
0.0180541
0.0168234
0.0156697
0.014588
0.0135748
0.0126252
0.0117361
0.0109032
0.0101238
0.00939379
0.00871106
0.00807188
0.0074743
0.00691507
0.0063924
0.00590342
0.00544682
0.00501953
0.00462158
0.00424858
0.00390334
0.00357832
0.00328064
0.00299691
0.00274042
0.00249291
0.00227399
0.00205997
0.00187364
0.00168987
0.00153603
0.00137862
0.00125232
0.00111809
0.00102742
0.000902548
0.000823858
0.000725269
0.000714542
0.000672495
0.000672607
0.000599702
0.000525498
0.000659372
0.00103499
0.00140507
0.00144803
0.00137811
0.00114993
0.00108479
0.00105316
0.00111002
0.00123782
0.00123443
0.00141726
0.00135728
0.00151189
0.00147069
0.00150618
0.407252
0.39298
0.379249
0.366009
0.353219
0.340836
0.32882
0.317138
0.30576
0.294663
0.283832
0.273257
0.262937
0.252872
0.243066
0.233525
0.224255
0.215263
0.206553
0.198127
0.189985
0.182125
0.17454
0.167224
0.160167
0.153359
0.14679
0.140447
0.134319
0.128396
0.122668
0.117125
0.111759
0.106564
0.101534
0.0966646
0.0919527
0.0873955
0.0829914
0.0787391
0.074638
0.0706872
0.0668863
0.0632346
0.0597311
0.0563747
0.0531638
0.0500965
0.0471706
0.0443832
0.0417314
0.0392117
0.0368204
0.0345535
0.0324068
0.0303759
0.0284565
0.0266439
0.0249336
0.023321
0.0218015
0.0203707
0.019024
0.0177574
0.0165663
0.0154474
0.0143958
0.0134087
0.0124816
0.011612
0.0107957
0.0100306
0.00931287
0.00864046
0.00800997
0.00741963
0.00686626
0.00634869
0.00586341
0.00541076
0.00498565
0.00459156
0.00421971
0.00387859
0.00355282
0.00325784
0.00297267
0.00271976
0.00247218
0.00225603
0.00204247
0.00186275
0.00167883
0.00153071
0.00137271
0.00126429
0.00111811
0.00102553
0.000908659
0.00088789
0.000830344
0.000821729
0.000729465
0.000642374
0.000888574
0.00127322
0.0016447
0.00166692
0.00157744
0.0013243
0.00125095
0.00120983
0.00125928
0.00138942
0.0013586
0.0015603
0.00146095
0.00163735
0.00157629
0.00159078
0.40355
0.389202
0.3754
0.362102
0.349274
0.336878
0.32488
0.313249
0.301956
0.290978
0.280296
0.269895
0.259766
0.249904
0.240307
0.230974
0.221908
0.213111
0.204587
0.196337
0.188363
0.180664
0.173237
0.166077
0.15918
0.152538
0.146141
0.139982
0.134048
0.128331
0.122819
0.117502
0.112371
0.107415
0.102626
0.0979961
0.093519
0.0891884
0.0849995
0.080948
0.0770308
0.073245
0.0695888
0.0660604
0.0626585
0.059382
0.0562298
0.0532007
0.0502938
0.0475074
0.0448402
0.0422902
0.0398555
0.0375336
0.0353222
0.0332182
0.0312189
0.0293209
0.0275209
0.0258156
0.0242012
0.0226744
0.0212313
0.0198686
0.0185823
0.0173694
0.0162256
0.0151484
0.0141335
0.0131788
0.0122799
0.0114352
0.0106405
0.00989425
0.00919272
0.00853437
0.00791577
0.00733598
0.00679108
0.00628185
0.00580243
0.00535719
0.00493598
0.00454884
0.00417825
0.00384207
0.00351633
0.00322667
0.00294259
0.00269384
0.00244757
0.00223919
0.00202588
0.00185332
0.00166863
0.00153986
0.00136968
0.00126105
0.00112305
0.00108915
0.00101258
0.000992087
0.000877257
0.000785191
0.00114887
0.00153676
0.0019033
0.00190199
0.00179121
0.00151364
0.00142965
0.00137894
0.00141564
0.00154774
0.00148162
0.00170167
0.0015577
0.00175477
0.00167577
0.00166349
0.400113
0.385711
0.37186
0.358523
0.345669
0.333264
0.321279
0.309685
0.298456
0.287567
0.277
0.266735
0.256761
0.247066
0.237645
0.228492
0.219604
0.210981
0.202623
0.19453
0.186704
0.179142
0.171844
0.164806
0.158026
0.151497
0.145215
0.139171
0.133357
0.127766
0.122387
0.117213
0.112232
0.107436
0.102816
0.0983613
0.094065
0.0899187
0.0859151
0.0820477
0.0783106
0.0746988
0.0712078
0.0678339
0.0645741
0.0614256
0.0583864
0.0554545
0.0526285
0.049907
0.0472886
0.0447721
0.0423563
0.0400395
0.0378205
0.0356975
0.0336686
0.0317319
0.0298853
0.0281264
0.0264528
0.024862
0.0233511
0.0219177
0.0205585
0.0192714
0.0180525
0.0169002
0.0158102
0.0147811
0.0138087
0.0128919
0.0120265
0.0112114
0.0104427
0.00971928
0.00903751
0.00839686
0.00779302
0.00722739
0.0066933
0.0061962
0.00572445
0.00528995
0.00487278
0.00449362
0.00412514
0.00379659
0.00347358
0.0031899
0.00290832
0.00266876
0.00242332
0.00222379
0.00200955
0.00185776
0.00166081
0.0015338
0.00137169
0.00132134
0.00122195
0.001186
0.00104543
0.00101192
0.00143978
0.00182493
0.00217998
0.00215264
0.00201868
0.00171771
0.00162008
0.0015602
0.00157845
0.00171267
0.00160368
0.00184024
0.00164729
0.00186233
0.00176772
0.00172381
0.39691
0.382472
0.368588
0.355225
0.342355
0.329948
0.317975
0.30641
0.29523
0.284411
0.273932
0.263775
0.253925
0.244367
0.235093
0.226093
0.217361
0.208893
0.200686
0.192738
0.185048
0.177613
0.170433
0.163505
0.156826
0.150391
0.144197
0.138238
0.132507
0.126998
0.121704
0.116616
0.111727
0.107029
0.102512
0.0981689
0.0939908
0.0899695
0.0860973
0.0823664
0.0787699
0.0753011
0.0719539
0.0687227
0.0656026
0.0625892
0.0596786
0.0568674
0.054153
0.0515325
0.0490042
0.0465658
0.0442161
0.0419534
0.0397763
0.0376835
0.0356737
0.0337455
0.0318974
0.030128
0.0284356
0.0268187
0.025275
0.0238033
0.0224008
0.0210663
0.0197966
0.0185908
0.017445
0.0163588
0.0153282
0.0143525
0.0134279
0.0125538
0.0117264
0.0109451
0.010206
0.00950944
0.00885053
0.00823157
0.00764505
0.00709773
0.00657636
0.00609503
0.00563117
0.00520869
0.00479658
0.00442814
0.00406471
0.00374459
0.00342577
0.0031531
0.00287325
0.00264454
0.00239819
0.00222085
0.0019944
0.00184663
0.00165749
0.00158726
0.00146116
0.00140582
0.00124026
0.00131896
0.00176003
0.00213617
0.00247293
0.00241739
0.00225824
0.00193556
0.0018209
0.0017527
0.00174675
0.00188375
0.00172545
0.00197525
0.00172987
0.00195861
0.00185048
0.00177164
0.393913
0.379454
0.36555
0.352173
0.339296
0.32689
0.31493
0.303391
0.29225
0.281487
0.271079
0.261008
0.251257
0.241812
0.232659
0.223789
0.215192
0.20686
0.198789
0.190973
0.183409
0.176095
0.169027
0.162203
0.15562
0.149273
0.14316
0.137275
0.131613
0.126169
0.120936
0.115909
0.11108
0.106443
0.101989
0.097713
0.0936058
0.0896605
0.0858696
0.0822258
0.0787219
0.0753511
0.0721067
0.0689823
0.065972
0.0630702
0.0602719
0.0575722
0.0549672
0.0524527
0.0500257
0.0476829
0.0454219
0.0432403
0.0411361
0.0391074
0.0371527
0.0352705
0.0334592
0.0317179
0.0300447
0.0284389
0.0268985
0.025423
0.02401
0.0226591
0.0213674
0.020135
0.0189583
0.0178377
0.0167694
0.0157537
0.0147868
0.0138689
0.0129962
0.0121689
0.0113831
0.0106397
0.00993351
0.00926797
0.00863462
0.00804184
0.00747463
0.00694959
0.00644129
0.00597731
0.00552256
0.00511494
0.00471108
0.00435433
0.0039975
0.00369079
0.0033751
0.00311571
0.0028353
0.00263034
0.00237202
0.00220121
0.00198242
0.00188902
0.00173251
0.00165356
0.00152143
0.00166038
0.00210717
0.00246766
0.00277902
0.00269354
0.00250718
0.00216518
0.00202994
0.00195463
0.00191884
0.00205976
0.00184768
0.00210624
0.00180578
0.00204258
0.00192225
0.00180724
0.391102
0.376632
0.362718
0.349336
0.336458
0.324058
0.312112
0.300597
0.289491
0.278773
0.268423
0.258422
0.248752
0.239399
0.230348
0.221587
0.213105
0.204892
0.196941
0.189244
0.181797
0.174595
0.167634
0.16091
0.154419
0.148158
0.142123
0.13631
0.130713
0.125329
0.120151
0.115175
0.110393
0.105801
0.101392
0.09716
0.0930975
0.0891983
0.085456
0.0818639
0.0784153
0.0751039
0.0719233
0.0688672
0.0659297
0.0631047
0.060387
0.0577711
0.0552521
0.0528252
0.0504864
0.0482313
0.0460567
0.043959
0.0419354
0.0399832
0.0381001
0.0362839
0.0345326
0.0328447
0.0312182
0.0296524
0.0281449
0.0266957
0.0253021
0.0239644
0.0226796
0.0214485
0.0202677
0.0191382
0.0180562
0.0170231
0.0160348
0.0150925
0.0141924
0.0133356
0.0125177
0.011741
0.0109996
0.0102983
0.00962756
0.00899776
0.00839191
0.00782954
0.00728203
0.00678114
0.00628732
0.00584357
0.0054014
0.00500978
0.00461588
0.00427577
0.00392418
0.00363375
0.00331842
0.00308462
0.0027928
0.00259706
0.00234656
0.00222721
0.00203715
0.00193035
0.00188656
0.00203306
0.00247716
0.00281497
0.00309348
0.00297684
0.00276134
0.00240315
0.00224398
0.00216311
0.00209206
0.00223826
0.00197062
0.00223295
0.00187551
0.00211359
0.00198126
0.00183112
0.388456
0.373983
0.360069
0.346687
0.333815
0.321425
0.309495
0.298003
0.286928
0.27625
0.265948
0.256005
0.246403
0.237126
0.22816
0.219491
0.211106
0.202996
0.195149
0.187559
0.180217
0.173119
0.166257
0.159628
0.153227
0.14705
0.141092
0.135349
0.129818
0.124493
0.119369
0.114441
0.109704
0.105153
0.100782
0.0965845
0.0925557
0.0886892
0.0849792
0.0814197
0.0780049
0.0747288
0.0715857
0.0685697
0.0656754
0.062897
0.0602293
0.057667
0.0552051
0.0528385
0.0505629
0.0483735
0.0462666
0.0442378
0.0422838
0.040401
0.0385865
0.0368373
0.0351507
0.0335247
0.0319566
0.0304452
0.0289877
0.0275838
0.0262304
0.0249279
0.023673
0.0224668
0.0213054
0.0201907
0.0191183
0.0180904
0.0171027
0.0161574
0.0152498
0.0143826
0.0135506
0.0127574
0.0119962
0.0112736
0.0105786
0.00992378
0.00929002
0.00870017
0.00812203
0.00759205
0.00706573
0.00659182
0.00611612
0.00569389
0.00526614
0.0048954
0.0045098
0.00418967
0.00384014
0.00357765
0.00325197
0.00303026
0.00274688
0.00259964
0.00237394
0.00223556
0.00228305
0.00243157
0.0028637
0.00317158
0.00340949
0.00326119
0.00301502
0.00264437
0.00245841
0.00237411
0.00226253
0.00241529
0.00209333
0.00235499
0.00193957
0.00217135
0.00202593
0.00184396
0.385958
0.371489
0.35758
0.344206
0.331343
0.318967
0.307056
0.295587
0.28454
0.273897
0.263638
0.253744
0.244199
0.234987
0.226092
0.2175
0.209199
0.201176
0.193421
0.185924
0.178677
0.171672
0.164902
0.158362
0.152046
0.14595
0.140067
0.134395
0.128928
0.123662
0.118592
0.113714
0.109022
0.104511
0.100176
0.0960123
0.092014
0.0881758
0.0844922
0.0809577
0.0775671
0.0743149
0.0711958
0.0682044
0.0653358
0.0625845
0.0599459
0.0574148
0.0549866
0.0526564
0.0504199
0.0482725
0.0462103
0.0442287
0.0423244
0.0404932
0.0387319
0.0370371
0.0354056
0.0338348
0.0323215
0.030864
0.0294589
0.0281056
0.0268002
0.0255432
0.0243304
0.0231632
0.0220368
0.0209536
0.0199084
0.0189043
0.0179358
0.0170063
0.0161102
0.0152512
0.0144232
0.0136312
0.0128672
0.0121395
0.0114356
0.0107704
0.0101222
0.00951764
0.00892045
0.00837224
0.00782303
0.00732792
0.00682638
0.00638065
0.00592491
0.0055289
0.00511358
0.00476732
0.0043864
0.00409725
0.00373923
0.00349186
0.00317575
0.00299988
0.00273807
0.0025935
0.00270381
0.00284759
0.00325753
0.0035285
0.00371809
0.00353847
0.00326096
0.00288215
0.00266703
0.00258249
0.00242543
0.00258539
0.00221318
0.00247146
0.00199851
0.00221591
0.00205509
0.00184646
0.383593
0.369134
0.355236
0.341873
0.329024
0.316665
0.304773
0.293327
0.282309
0.271698
0.261476
0.251626
0.24213
0.232973
0.224138
0.215613
0.207383
0.199436
0.19176
0.184345
0.177182
0.170261
0.163575
0.157117
0.150881
0.144861
0.139051
0.133447
0.128044
0.122837
0.117822
0.112993
0.108346
0.103876
0.0995791
0.095449
0.0914813
0.0876708
0.0840124
0.080501
0.0771318
0.0738994
0.0707991
0.0678258
0.0649748