/*--------------------------------*- C++ -*----------------------------------*\
| =========                 |                                                 |
| \\      /  F ield         | OpenFOAM: The Open Source CFD Toolbox           |
|  \\    /   O peration     | Version:  2412                                  |
|   \\  /    A nd           | Website:  www.openfoam.com                      |
|    \\/     M anipulation  |                                                 |
\*---------------------------------------------------------------------------*/
FoamFile
{
    version     2.0;
    format      ascii;
    arch        "LSB;label=32;scalar=64";
    class       volVectorField;
    location    "0.435";
    object      U;
}
// * * * * * * * * * * * * * * * * * * * * * * * * * * * * * * * * * * * * * //

dimensions      [0 1 -1 0 0 0 0];

internalField   nonuniform List<vector> 
12600
(
(18.7137 1.25021e-21 2.08614)
(11.6122 1.61084e-20 0.448428)
(7.3507 1.89487e-20 -0.478605)
(5.09201 0 -0.70961)
(3.9804 1.71473e-20 -0.682767)
(3.34028 1.59778e-20 -0.608156)
(2.89934 0 -0.540534)
(2.56826 0 -0.485169)
(2.3087 -4.81228e-20 -0.439766)
(2.09857 0 -0.402057)
(1.92417 2.02087e-20 -0.370205)
(1.7766 1.85155e-20 -0.342885)
(1.64973 -1.69727e-20 -0.319154)
(1.53925 0 -0.298315)
(1.44196 -1.42443e-20 -0.279845)
(1.35549 0 -0.263342)
(1.278 4.79323e-20 -0.248492)
(1.20807 0 -0.235044)
(1.14457 -2.00918e-20 -0.222799)
(1.08658 -1.8391e-20 -0.211592)
(1.03338 1.68038e-20 -0.201289)
(0.984348 5.64818e-24 -0.191779)
(0.938978 0 -0.182967)
(0.896845 -2.54335e-20 -0.174776)
(0.85759 0 -0.167137)
(0.820907 0 -0.159994)
(0.786532 -1.89366e-20 -0.153295)
(0.754238 0 -0.146999)
(0.723827 3.8372e-24 -0.141068)
(0.695128 1.37663e-20 -0.135468)
(0.667987 1.22889e-20 -0.130172)
(0.642272 1.09203e-20 -0.125152)
(0.617862 -9.65302e-21 -0.120387)
(0.594653 -1.6959e-20 -0.115856)
(0.57255 -1.4786e-20 -0.111541)
(0.551468 1.2764e-20 -0.107426)
(0.531332 0 -0.103495)
(0.512073 -9.19235e-21 -0.099736)
(0.493628 0 -0.0961358)
(0.47594 6.1368e-21 -0.0926839)
(0.458958 0 -0.0893702)
(0.442635 1.71408e-23 -0.0861855)
(0.426926 0 -0.0831212)
(0.411793 1.56294e-23 -0.0801698)
(0.397199 7.48599e-22 -0.077324)
(0.38311 1.00069e-21 -0.0745772)
(0.369494 -2.62518e-21 -0.0719232)
(0.356324 0 -0.0693566)
(0.343571 0 -0.0668719)
(0.331211 -6.64073e-21 -0.0644645)
(0.319219 -1.54781e-20 -0.0621297)
(0.307576 -1.74624e-20 -0.0598633)
(0.296259 1.90238e-23 -0.057661)
(0.28525 -2.08334e-20 -0.0555194)
(0.274533 0 -0.0534348)
(0.264089 2.35493e-20 -0.051404)
(0.253904 2.4666e-20 -0.049424)
(0.243962 2.56259e-20 -0.0474916)
(0.234252 0 -0.0456044)
(0.224757 0 -0.0437594)
(0.215469 0 -0.0419554)
(0.206372 -5.65457e-20 -0.0401891)
(0.197462 0 -0.0384599)
(0.188722 0 -0.0367642)
(0.180154 1.16712e-19 -0.0351022)
(0.171736 0 -0.0334696)
(0.163477 0 -0.0318681)
(0.155352 0 -0.0302928)
(0.147377 -1.17382e-19 -0.0287469)
(0.139523 1.16916e-19 -0.0272244)
(0.131813 1.16234e-19 -0.0257303)
(0.124214 2.29953e-23 -0.024258)
(0.116754 -1.14285e-19 -0.0228129)
(0.109397 0 -0.0213881)
(0.102176 1.11671e-19 -0.01999)
(0.0950503 0 -0.0186106)
(0.0880701 0 -0.0172593)
(0.0811797 0 -0.0159255)
(0.0744633 2.89147e-23 -0.0146252)
(0.0678255 2.05941e-19 -0.0133405)
(0.0614126 2.01848e-19 -0.0120988)
(0.0550554 -1.97574e-19 -0.0108684)
(0.0489684 -1.93205e-19 -0.00968946)
(0.0428953 0 -0.00851444)
(0.0370696 0 -0.0073865)
(0.0313114 3.58836e-19 -0.00627296)
(0.025748 -6.98846e-19 -0.00519595)
(0.0204542 6.79741e-19 -0.0041719)
(0.0151022 3.3035e-19 -0.00313738)
(0.0103383 0 -0.00221432)
(0.00520644 -6.22165e-19 -0.00122395)
(0.00106969 3.01456e-19 -0.000422057)
(-0.00405776 -2.91817e-19 0.000568904)
(-0.00768106 5.64607e-19 0.00126902)
(-0.0127696 0 0.00225099)
(-0.0157876 0 0.00283507)
(-0.0222556 0 0.00408142)
(-0.0240653 0 0.0044276)
(-0.0303853 0 0.00563787)
(-0.0292993 0 0.00544248)
(-0.0404584 -4.38087e-19 0.00758299)
(-0.0446053 -8.43258e-19 0.0083659)
(-0.0670711 -8.09413e-19 0.0126561)
(-0.07982 0 0.0150339)
(-0.113205 0 0.0213578)
(-0.105504 0 0.0197266)
(-0.0977202 -7.42137e-19 0.0180447)
(-0.0363916 -1.46911e-18 0.00621402)
(-0.0152754 7.11934e-19 0.00233581)
(0.0417375 0 -0.00842354)
(0.0229822 -1.30734e-18 -0.00465648)
(0.0635905 0 -0.0125036)
(0.0328983 -1.19221e-18 -0.00654668)
(0.0806923 1.14907e-18 -0.0159262)
(0.064962 -1.09631e-18 -0.0128425)
(0.120948 -1.0486e-18 -0.0237065)
(0.117507 1.00721e-18 -0.023047)
(0.185905 -4.61532e-23 -0.0361466)
(0.18361 9.14803e-19 -0.0358129)
(0.281015 0 -0.0542954)
(29.1159 -1.2621e-21 4.0139)
(25.085 0 1.85104)
(20.2334 -1.91782e-20 -0.217617)
(16.0752 0 -1.21443)
(13.1214 -1.73751e-20 -1.50948)
(11.0822 -3.05326e-20 -1.52049)
(9.61214 -1.41416e-20 -1.44298)
(8.50159 0 -1.34556)
(7.62977 3.56429e-22 -1.25035)
(6.92398 -2.20285e-20 -1.1634)
(6.33868 2.02381e-20 -1.08542)
(5.84389 1.85911e-20 -1.01568)
(5.41904 -1.70762e-20 -0.953186)
(5.0495 1.5682e-20 -0.89696)
(4.72453 2.88518e-20 -0.846144)
(4.43606 0 -0.800008)
(4.17792 -6.53273e-23 -0.757934)
(3.94527 2.22165e-20 -0.719401)
(3.7343 2.03841e-20 -0.683972)
(3.54191 0 -0.651275)
(3.36561 0 -0.620998)
(3.20333 1.55479e-20 -0.59287)
(3.05337 0 -0.566662)
(2.91427 1.28929e-20 -0.542177)
(2.78484 -2.34123e-20 -0.519242)
(2.66402 0 -0.497708)
(2.55094 1.91925e-20 -0.477444)
(2.44482 0 -0.458336)
(2.345 -1.55598e-20 -0.440283)
(2.2509 -2.78887e-20 -0.423194)
(2.162 -2.4891e-20 -0.406992)
(2.07786 -1.10534e-20 -0.391604)
(1.99808 9.7679e-21 -0.376967)
(1.9223 3.43292e-20 -0.363024)
(1.8502 2.99237e-20 -0.349723)
(1.7815 0 -0.337019)
(1.71595 0 -0.324868)
(1.65331 -1.68466e-23 -0.313233)
(1.59338 0 -0.302077)
(1.53596 -6.19535e-21 -0.29137)
(1.48089 0 -0.281082)
(1.428 -7.14433e-21 -0.271185)
(1.37714 0 -0.261656)
(1.3282 -2.71241e-21 -0.252471)
(1.28104 0 -0.243608)
(1.23555 -1.00764e-21 -0.23505)
(1.19163 0 -0.226776)
(1.14919 0 -0.218771)
(1.10812 5.42523e-21 -0.211017)
(1.06835 0 -0.203503)
(1.0298 0 -0.196212)
(0.992407 0 -0.189132)
(0.956088 1.92914e-20 -0.182251)
(0.92079 4.17428e-20 -0.175558)
(0.88645 0 -0.169042)
(0.853015 0 -0.162693)
(0.820433 -2.46413e-20 -0.156502)
(0.788654 -2.56247e-20 -0.15046)
(0.757635 0 -0.144559)
(0.727329 0 -0.138789)
(0.697704 0 -0.133148)
(0.668711 0 -0.127623)
(0.640335 -5.70552e-20 -0.122215)
(0.612518 5.76117e-20 -0.116911)
(0.585264 -1.16046e-19 -0.111713)
(0.558506 0 -0.106606)
(0.532269 0 -0.101598)
(0.506471 0 -0.0966707)
(0.481164 4.6112e-23 -0.0918371)
(0.456254 -1.15798e-19 -0.0870767)
(0.431812 -1.15018e-19 -0.0824058)
(0.407733 2.28039e-19 -0.0778023)
(0.384105 3.51398e-23 -0.0732851)
(0.360811 -1.11521e-19 -0.0688303)
(0.33796 -1.10082e-19 -0.0644603)
(0.315423 0 -0.0601489)
(0.29335 0 -0.0559264)
(0.271577 0 -0.05176)
(0.250346 2.06004e-19 -0.0476986)
(0.229389 0 -0.0436874)
(0.209112 0 -0.0398098)
(0.189047 1.93369e-19 -0.035967)
(0.169786 1.88891e-19 -0.0322851)
(0.150616 0 -0.0286096)
(0.132203 0 -0.0250918)
(0.114039 0 -0.021608)
(0.0964979 6.80203e-19 -0.0182596)
(0.0797758 -4.74258e-23 -0.0150519)
(0.0629418 3.20801e-19 -0.0118374)
(0.0478924 -3.1112e-19 -0.00895238)
(0.0317688 6.0293e-19 -0.00587298)
(0.0186939 2.91789e-19 -0.00336454)
(0.00259648 5.64382e-19 -0.000284405)
(-0.00873526 0 0.00189068)
(-0.0247058 0 0.00494198)
(-0.0341598 0 0.00678412)
(-0.0539849 0 0.0105744)
(-0.0594404 4.71982e-19 0.0116094)
(-0.0788932 0 0.0153056)
(-0.0764432 0 0.0148913)
(-0.111202 -4.20039e-19 0.0217)
(-0.123437 4.03895e-19 0.0241964)
(-0.190206 1.54918e-18 0.0372418)
(-0.224253 -7.4868e-19 0.0438941)
(-0.317268 0 0.0615532)
(-0.284078 0 0.0543047)
(-0.257674 0 0.0481754)
(-0.0738705 6.99648e-19 0.0123948)
(-0.0179367 -6.7755e-19 0.00193246)
(0.149767 0 -0.0296348)
(0.089606 2.4841e-18 -0.0174877)
(0.216215 1.19404e-18 -0.0418362)
(0.122556 2.26171e-18 -0.0236891)
(0.275924 0 -0.0536867)
(0.223447 0 -0.0436053)
(0.402733 -9.92288e-19 -0.0782707)
(0.385914 0 -0.0754081)
(0.599081 -9.00487e-19 -0.116126)
(0.58896 -8.63967e-19 -0.114911)
(0.874863 0 -0.169743)
(31.8598 0 3.88029)
(31.0516 0 2.80637)
(28.5298 -1.30088e-20 1.01468)
(25.1955 0 -0.389182)
(21.9517 0 -1.23136)
(19.1855 1.51747e-20 -1.65528)
(16.9326 1.33922e-20 -1.82326)
(15.1116 0 -1.85481)
(13.6271 4.211e-22 -1.82116)
(12.3993 2.08689e-20 -1.75876)
(11.3677 -3.81371e-20 -1.68508)
(10.4884 -1.7615e-20 -1.60847)
(9.72912 1.15008e-22 -1.53291)
(9.06614 -1.48599e-20 -1.46025)
(8.48156 -1.3643e-20 -1.39128)
(7.96172 1.24707e-20 -1.32626)
(7.49595 -2.29687e-20 -1.26517)
(7.07586 -2.10533e-20 -1.20786)
(6.69473 0 -1.1541)
(6.34712 0 -1.10367)
(6.02857 1.60996e-20 -1.0563)
(5.7354 1.47008e-20 -1.01176)
(5.46454 0 -0.969827)
(5.21341 0 -0.930294)
(4.9798 2.21846e-20 -0.89297)
(4.76186 0 -0.857681)
(4.55797 -3.63648e-20 -0.824268)
(4.36675 1.63986e-20 -0.792586)
(4.18698 0 -0.762506)
(4.0176 1.32138e-20 -0.733909)
(3.8577 1.17937e-20 -0.706687)
(3.70645 0 -0.680741)
(3.56312 -9.2658e-21 -0.655983)
(3.42707 -1.62666e-20 -0.632329)
(3.29771 1.17037e-23 -0.609707)
(3.17455 0 -0.588046)
(3.05709 0 -0.567284)
(2.94494 8.81042e-21 -0.547363)
(2.8377 0 -0.52823)
(2.73503 0 -0.509837)
(2.63662 0 -0.492136)
(2.54217 0 -0.475088)
(2.45142 0 -0.458651)
(2.36414 0 -0.442791)
(2.2801 0 -0.427473)
(2.19909 9.11714e-22 -0.412667)
(2.12092 -2.44763e-21 -0.398341)
(2.04543 0 -0.384471)
(1.97244 -5.13278e-21 -0.371029)
(1.90181 0 -0.357992)
(1.83339 0 -0.345337)
(1.76705 1.64986e-20 -0.333043)
(1.70267 0 -0.321088)
(1.64014 -1.97209e-20 -0.309457)
(1.57935 2.10408e-20 -0.298129)
(1.52019 0 -0.28709)
(1.46258 2.32915e-20 -0.276322)
(1.40643 0 -0.265811)
(1.35165 0 -0.255545)
(1.29816 0 -0.245507)
(1.2459 5.22939e-20 -0.23569)
(1.19479 5.31689e-20 -0.226076)
(1.14479 2.76645e-23 -0.216663)
(1.09581 -1.08778e-19 -0.207431)
(1.04784 2.41952e-23 -0.198384)
(1.00077 0 -0.189496)
(0.954635 0 -0.18078)
(0.909297 -1.10028e-19 -0.172205)
(0.864839 3.7088e-23 -0.163795)
(0.821098 0 -0.155511)
(0.778196 0 -0.147385)
(0.735947 -1.07505e-19 -0.139375)
(0.694503 2.826e-23 -0.131517)
(0.65366 2.63183e-23 -0.123766)
(0.613607 0 -0.116165)
(0.574119 0 -0.108666)
(0.535454 -2.01084e-19 -0.101324)
(0.497332 1.97607e-19 -0.0940816)
(0.460154 0 -0.0870209)
(0.423484 0 -0.0800517)
(0.387971 0 -0.0733102)
(0.352869 0 -0.0666321)
(0.319114 0 -0.0602275)
(0.285581 0 -0.0538328)
(0.253338 0 -0.0477206)
(0.221583 0 -0.0416605)
(0.190919 -6.39477e-19 -0.0358592)
(0.161653 -3.10616e-19 -0.0302709)
(0.132283 -3.01512e-19 -0.0247106)
(0.105937 2.92352e-19 -0.0196883)
(0.0778368 -5.66377e-19 -0.0143649)
(0.0549342 -2.74076e-19 -0.00998972)
(0.0269187 -2.64991e-19 -0.00466738)
(0.00722698 0 -0.000906277)
(-0.0205632 0 0.00436764)
(-0.0369647 0 0.0075927)
(-0.0708095 0 0.0139918)
(-0.0800066 -4.42797e-19 0.0157111)
(-0.113387 0 0.0219746)
(-0.110336 0 0.0216334)
(-0.170114 3.9384e-19 0.0335408)
(-0.189919 0 0.0378841)
(-0.300495 -7.25977e-19 0.0596835)
(-0.351076 7.01599e-19 0.0696348)
(-0.496982 0 0.0963788)
(-0.427832 0 0.0800594)
(-0.38063 0 0.0676555)
(-0.0733855 6.54951e-19 0.00779602)
(0.00984369 0 -0.00717961)
(0.286917 -6.13097e-19 -0.0579878)
(0.181044 -7.34354e-23 -0.0361273)
(0.400134 -1.11749e-18 -0.0780502)
(0.24055 -2.11626e-18 -0.0473469)
(0.511217 0 -0.100767)
(0.415053 9.71183e-19 -0.0823813)
(0.731117 9.28165e-19 -0.143839)
(0.692956 8.90768e-19 -0.137322)
(1.06061 0 -0.20744)
(1.03779 8.07839e-19 -0.204853)
(1.50693 0 -0.294371)
(32.3838 0 2.93575)
(32.9525 0 2.75247)
(32.4035 1.22977e-20 1.71072)
(30.7661 0 0.511787)
(28.5194 -1.23531e-20 -0.491632)
(26.1093 2.51336e-20 -1.21343)
(23.7955 0 -1.67584)
(21.6937 -2.19654e-20 -1.93968)
(19.8377 2.107e-20 -2.06877)
(18.2179 1.90685e-20 -2.11308)
(16.8069 1.79314e-20 -2.10635)
(15.5739 -1.63102e-20 -2.06983)
(14.4902 1.51935e-20 -2.01646)
(13.5318 -2.77208e-20 -1.95406)
(12.6786 0 -1.88734)
(11.9144 -2.35257e-20 -1.81918)
(11.2259 0 -1.75132)
(10.6023 0 -1.68481)
(10.0346 0 -1.62026)
(9.5155 1.66103e-20 -1.55802)
(9.03883 -3.45836e-23 -1.49825)
(8.59946 -2.63368e-23 -1.44101)
(8.19303 1.26582e-20 -1.38627)
(7.81585 0 -1.33397)
(7.46477 0 -1.28404)
(7.13707 0 -1.23636)
(6.83041 3.43777e-20 -1.19083)
(6.54273 -6.12402e-24 -1.14733)
(6.27228 0 -1.10576)
(6.01747 0 -1.06601)
(5.77693 0 -1.02797)
(5.54945 0 -0.991552)
(5.33393 1.75263e-20 -0.956652)
(5.12942 0 -0.923186)
(4.93504 -1.34173e-20 -0.89107)
(4.75002 0 -0.860226)
(4.57365 0 -0.830583)
(4.40531 -8.35135e-21 -0.802071)
(4.24443 0 -0.774625)
(4.09047 0 -0.748186)
(3.94296 4.35719e-21 -0.722698)
(3.80147 -6.46145e-21 -0.698107)
(3.6656 0 -0.674363)
(3.53498 -2.49039e-21 -0.651421)
(3.40928 0 -0.629236)
(3.28819 -1.70351e-21 -0.607769)
(3.17141 1.83871e-23 -0.586978)
(3.05868 0 -0.56683)
(2.94976 0 -0.547287)
(2.84442 5.90406e-21 -0.52832)
(2.74243 1.37762e-20 -0.509895)
(2.64361 -3.11292e-20 -0.491987)
(2.54776 0 -0.474564)
(2.45471 -1.85692e-20 -0.457604)
(2.36431 -1.98617e-20 -0.441081)
(2.27639 -2.0958e-20 -0.424972)
(2.19081 -2.19407e-20 -0.409255)
(2.10745 0 -0.393909)
(2.02617 0 -0.378916)
(1.94685 -4.8279e-20 -0.364255)
(1.86941 -9.86231e-20 -0.349914)
(1.7937 -5.01474e-20 -0.335868)
(1.71968 2.96664e-23 -0.322115)
(1.6472 5.1272e-20 -0.308624)
(1.57625 5.16113e-20 -0.295403)
(1.50667 0 -0.282414)
(1.4385 0 -0.269677)
(1.37155 1.03688e-19 -0.257147)
(1.30591 2.06706e-19 -0.244856)
(1.24137 0 -0.232751)
(1.17808 1.02084e-19 -0.220877)
(1.11578 1.01187e-19 -0.209172)
(1.05469 1.00159e-19 -0.197689)
(0.994504 1.97878e-19 -0.186364)
(0.935503 0 -0.175259)
(0.877352 0 -0.164304)
(0.820429 1.89224e-19 -0.153579)
(0.76433 -3.71799e-19 -0.143004)
(0.709611 -1.82389e-19 -0.132691)
(0.655679 0 -0.122518)
(0.603399 0 -0.112669)
(0.551783 0 -0.10292)
(0.502065 0 -0.0935567)
(0.452761 0 -0.0842159)
(0.405304 0 -0.0752879)
(0.35864 -3.08806e-19 -0.0664392)
(0.313572 4.59068e-23 -0.0579836)
(0.27052 2.91648e-19 -0.0498118)
(0.227435 0 -0.0417253)
(0.188665 2.74405e-19 -0.0343786)
(0.147491 2.65807e-19 -0.0266483)
(0.113762 0 -0.0202326)
(0.0727973 -2.48596e-19 -0.0125121)
(0.0440056 -4.80249e-19 -0.00703981)
(0.00338113 0 0.000612756)
(-0.0205017 0 0.00534524)
(-0.0690617 0 0.0144341)
(-0.0821117 -4.15049e-19 0.0168492)
(-0.130314 0 0.0257793)
(-0.127389 0 0.0257899)
(-0.213329 3.68988e-19 0.0430941)
(-0.239672 -3.5466e-19 0.0493004)
(-0.392852 0 0.079753)
(-0.454036 0 0.0920147)
(-0.645278 0 0.125951)
(-0.529488 0 0.0977574)
(-0.460434 0 0.0779926)
(-0.0297501 -1.25892e-22 -0.0061034)
(0.0722856 0 -0.023909)
(0.457394 5.73717e-19 -0.0930323)
(0.301556 -1.08767e-18 -0.0603976)
(0.619926 0 -0.12103)
(0.390943 8.10657e-23 -0.0772567)
(0.790804 0 -0.156565)
(0.642673 -7.64376e-23 -0.128517)
(1.10916 0 -0.219456)
(1.0402 -8.32838e-19 -0.20778)
(1.57103 0 -0.308919)
(1.52949 7.55047e-19 -0.304118)
(2.17375 0 -0.427166)
(32.4887 0 2.0822)
(33.2478 0 2.20987)
(33.5966 0 1.73682)
(33.2358 0 0.944724)
(32.2176 1.16605e-20 0.104622)
(30.7489 -8.99943e-22 -0.643139)
(29.0347 0 -1.24318)
(27.2336 2.07323e-20 -1.68633)
(25.4549 0 -1.98969)
(23.7647 -3.54958e-20 -2.18143)
(22.1952 0 -2.29005)
(20.7566 1.5398e-20 -2.33952)
(19.4465 0 -2.3481)
(18.2562 2.61728e-20 -2.329)
(17.1746 -1.19321e-20 -2.29152)
(16.1901 2.20664e-20 -2.2421)
(15.292 -2.02197e-20 -2.18517)
(14.4702 -1.85774e-20 -2.1238)
(13.7162 0 -2.06009)
(13.0222 -1.56847e-20 -1.9955)
(12.3815 -1.43468e-20 -1.93101)
(11.7884 -2.6174e-20 -1.86731)
(11.2378 -1.19527e-20 -1.80485)
(10.7254 0 -1.74394)
(10.2472 0 -1.68476)
(9.79996 0 -1.62742)
(9.38075 -1.62252e-20 -1.57196)
(8.98697 -1.46374e-20 -1.51841)
(8.61635 0 -1.46675)
(8.26687 0 -1.41693)
(7.93673 1.05312e-20 -1.36891)
(7.62434 0 -1.32264)
(7.32826 1.23236e-24 -1.27805)
(7.04721 -1.45418e-20 -1.23507)
(6.78005 1.26809e-20 -1.19364)
(6.52572 0 -1.15369)
(6.28329 0 -1.11515)
(6.0519 7.88218e-21 -1.07796)
(5.83077 0 -1.04206)
(5.61921 0 -1.00738)
(5.41655 -4.11171e-21 -0.973864)
(5.22221 6.09706e-21 -0.941459)
(5.03564 0 -0.910109)
(4.85634 2.34964e-21 -0.879763)
(4.68385 0 -0.850371)
(4.51774 7.9444e-22 -0.821887)
(4.35762 2.16377e-21 -0.794265)
(4.20313 0 -0.767463)
(4.05391 4.52626e-21 -0.74144)
(3.90966 -5.56786e-21 -0.716158)
(3.77007 -2.59524e-20 -0.691577)
(3.63489 1.46623e-20 -0.667666)
(3.50383 -1.61379e-20 -0.644387)
(3.37667 2.46642e-23 -0.621713)
(3.25317 0 -0.599609)
(3.13314 1.97537e-20 -0.578049)
(3.01637 2.06779e-20 -0.557004)
(2.90267 -2.14597e-20 -0.536449)
(2.79188 2.21471e-20 -0.516359)
(2.68382 4.54858e-20 -0.496709)
(2.57835 4.64375e-20 -0.477482)
(2.47531 -4.71746e-20 -0.458648)
(2.37461 4.78064e-20 -0.440202)
(2.27606 0 -0.422106)
(2.17963 0 -0.404368)
(2.08511 4.87354e-20 -0.386941)
(1.99254 0 -0.369851)
(1.90167 0 -0.353037)
(1.81262 -9.72471e-20 -0.336543)
(1.72508 0 -0.320299)
(1.63928 -9.60459e-20 -0.304365)
(1.55485 -1.90344e-19 -0.288656)
(1.47208 0 -0.273247)
(1.39057 -9.30333e-20 -0.258048)
(1.31069 0 -0.243145)
(1.23198 0 -0.228447)
(1.15495 -1.77787e-19 -0.214057)
(1.07907 1.74704e-19 -0.199871)
(1.00504 3.94775e-23 -0.186036)
(0.932124 0 -0.172394)
(0.861382 0 -0.159176)
(0.791606 0 -0.1461)
(0.724293 -1.56814e-19 -0.133525)
(0.657655 1.52902e-19 -0.12099)
(0.593446 0 -0.109011)
(0.530408 5.79711e-19 -0.0971408)
(0.469501 2.81833e-19 -0.085819)
(0.411284 -5.47329e-19 -0.0748402)
(0.353162 -2.65537e-19 -0.0640359)
(0.300708 -5.14809e-19 -0.0541627)
(0.245236 0 -0.0438503)
(0.199562 0 -0.0352059)
(0.144523 2.33099e-19 -0.0249285)
(0.105789 4.5024e-19 -0.0176065)
(0.051235 -4.34491e-19 -0.00741936)
(0.0193081 0 -0.00104872)
(-0.0447124 0 0.0107812)
(-0.0617561 3.88875e-19 0.0138933)
(-0.125765 3.74241e-19 0.0255987)
(-0.123569 0 0.0262678)
(-0.236449 -3.45567e-19 0.0492589)
(-0.2677 3.321e-19 0.0572578)
(-0.461549 0 0.0960433)
(-0.526322 0 0.109199)
(-0.754951 0 0.147761)
(-0.582101 0 0.104347)
(-0.491533 0 0.0762776)
(0.0617283 -5.73479e-19 -0.0316605)
(0.173412 0 -0.0500798)
(0.665474 0 -0.136261)
(0.455444 0 -0.0918325)
(0.880075 9.77487e-19 -0.172316)
(0.577494 9.25426e-19 -0.115025)
(1.11822 0 -0.222747)
(0.908486 -8.49024e-19 -0.183349)
(1.53858 0 -0.306577)
(1.42808 -7.78338e-19 -0.287753)
(2.12897 0 -0.421247)
(2.06232 -7.05619e-19 -0.413113)
(2.87048 0 -0.567425)
(32.5628 -5.02022e-21 1.46726)
(33.147 -6.22367e-21 1.60872)
(33.6747 7.38388e-21 1.41944)
(33.9021 8.31765e-21 0.960118)
(33.7123 0 0.369726)
(33.1172 -9.96526e-21 -0.244813)
(32.19 0 -0.817733)
(31.0213 1.75318e-20 -1.31205)
(29.6996 1.67712e-20 -1.71236)
(28.301 3.23624e-20 -2.01907)
(26.8849 -1.49011e-20 -2.24186)
(25.4932 1.39144e-20 -2.39417)
(24.1532 0 -2.4899)
(22.8803 0 -2.54163)
(21.6818 1.12494e-20 -2.55997)
(20.5597 -1.14945e-22 -2.55343)
(19.5123 1.7678e-22 -2.52864)
(18.536 1.36547e-22 -2.49068)
(17.6266 0 -2.44336)
(16.779 0 -2.38956)
(15.9884 0 -2.33145)
(15.2502 2.45947e-20 -2.27062)
(14.5599 1.12049e-20 -2.20827)
(13.9135 0 -2.1453)
(13.3073 0 -2.08236)
(12.7378 1.68537e-20 -2.01993)
(12.202 0 -1.95838)
(11.6971 0 -1.89795)
(11.2206 0 -1.83881)
(10.7703 0 -1.7811)
(10.3441 -6.40322e-24 -1.72488)
(9.94015 0 -1.67021)
(9.55675 -1.74347e-24 -1.61708)
(9.19238 1.37078e-20 -1.56552)
(8.84567 2.15807e-24 -1.51549)
(8.51536 0 -1.46697)
(8.20029 0 -1.41994)
(7.8994 0 -1.37434)
(7.61175 0 -1.33014)
(7.33645 0 -1.28729)
(7.07268 0 -1.24575)
(6.81971 0 -1.20546)
(6.57683 -3.93957e-21 -1.16637)
(6.34342 -2.2492e-21 -1.12845)
(6.11888 0 -1.09164)
(5.90268 7.14858e-22 -1.05589)
(5.6943 0 -1.02116)
(5.49329 0 -0.98741)
(5.29918 -8.51152e-21 -0.95459)
(5.1116 0 -0.922662)
(4.93012 1.22068e-20 -0.891583)
(4.75443 0 -0.861317)
(4.58416 3.03661e-20 -0.831823)
(4.41903 2.38388e-23 -0.803068)
(4.25871 0 -0.775015)
(4.10295 0 -0.747634)
(3.95148 0 -0.720888)
(3.80407 4.03765e-20 -0.694751)
(3.66048 -4.16675e-20 -0.669192)
(3.52049 -4.27358e-20 -0.644182)
(3.38393 -4.3631e-20 -0.6197)
(3.25056 8.87363e-20 -0.595711)
(3.12028 4.49175e-20 -0.572209)
(2.99284 0 -0.549147)
(2.8682 0 -0.526537)
(2.74607 -2.34544e-23 -0.504318)
(2.62652 0 -0.482524)
(2.50919 0 -0.46108)
(2.39427 -9.13466e-20 -0.440044)
(2.28134 0 -0.419322)
(2.17069 0 -0.398994)
(2.06183 1.78815e-19 -0.378951)
(1.95516 -8.84362e-20 -0.359291)
(1.85013 0 -0.339898)
(1.74724 0 -0.320883)
(1.64588 0 -0.302129)
(1.54671 1.6697e-19 -0.28377)
(1.44905 0 -0.265673)
(1.35377 3.21739e-19 -0.248021)
(1.25995 -1.57594e-19 -0.230619)
(1.16887 0 -0.213748)
(1.07911 0 -0.197064)
(0.992398 1.47152e-19 -0.181001)
(0.906693 -2.7667e-23 -0.165)
(0.824024 1.39706e-19 -0.149712)
(0.742985 -2.71859e-19 -0.134565)
(0.664638 2.64234e-19 -0.120138)
(0.589724 2.56603e-19 -0.106109)
(0.515087 2.48966e-19 -0.0923716)
(0.447544 3.56214e-23 -0.0797476)
(0.376407 0 -0.0666573)
(0.317538 -2.25965e-19 -0.0555754)
(0.247189 0 -0.0425698)
(0.197555 0 -0.0332391)
(0.127893 4.07037e-19 -0.0203509)
(0.0873193 0 -0.0122172)
(0.00704239 0 0.00241101)
(-0.0141678 0 0.00625514)
(-0.0950433 -3.50406e-19 0.0208692)
(-0.0940022 0 0.0224439)
(-0.234191 -3.23419e-19 0.0512532)
(-0.268075 0 0.0608123)
(-0.499896 0 0.1074)
(-0.560145 0 0.119814)
(-0.817911 0 0.160531)
(-0.577962 0 0.0990334)
(-0.467746 -5.42265e-19 0.0618963)
(0.206304 -5.36146e-19 -0.069418)
(0.31788 5.19085e-19 -0.0862029)
(0.916031 0 -0.188312)
(0.647528 0 -0.131081)
(1.18539 -1.82765e-18 -0.232527)
(0.804173 0 -0.161113)
(1.49679 8.32508e-19 -0.299612)
(1.2145 0 -0.247034)
(2.02024 7.57921e-19 -0.40506)
(1.85648 7.27344e-19 -0.376999)
(2.73146 0 -0.543673)
(2.634 -6.59193e-19 -0.531103)
(3.59112 0 -0.714063)
(32.619 4.72767e-21 1.01451)
(33.0307 1.14796e-20 1.10314)
(33.4775 -6.95522e-21 1.02163)
(33.8437 -7.78933e-22 0.759675)
(34.0185 7.53777e-21 0.370705)
(33.9462 0 -0.0833602)
(33.6187 0 -0.553425)
(33.0563 -1.65087e-20 -1.00377)
(32.2941 -3.06822e-20 -1.4108)
(31.3746 -7.08824e-22 -1.76149)
(30.341 1.40302e-20 -2.05134)
(29.2339 -1.3101e-20 -2.28169)
(28.0881 1.18577e-20 -2.45735)
(26.9318 0 -2.5849)
(25.7864 0 -2.67147)
(24.6674 -9.648e-21 -2.72406)
(23.5852 3.53345e-20 -2.74903)
(22.5465 3.25471e-20 -2.75194)
(21.5545 0 -2.73749)
(20.6108 0 -2.70956)
(19.715 0 -2.6713)
(18.8662 -6.76022e-23 -2.62526)
(18.0625 -2.10488e-20 -2.57344)
(17.3018 9.57379e-21 -2.51746)
(16.5819 1.74246e-20 -2.45859)
(15.9003 -3.16892e-20 -2.39784)
(15.2547 1.43256e-20 -2.33597)
(14.6428 1.29359e-20 -2.27362)
(14.0625 1.1644e-20 -2.21125)
(13.5115 0 -2.14925)
(12.9881 -9.34162e-21 -2.08789)
(12.4904 8.2961e-21 -2.02739)
(12.0167 -7.34309e-21 -1.96791)
(11.5654 -1.28984e-20 -1.90957)
(11.135 -2.2507e-20 -1.85246)
(10.7242 0 -1.79662)
(10.3317 0 -1.74211)
(9.95637 -7.01106e-21 -1.68892)
(9.59713 0 -1.63707)
(9.25296 4.69447e-21 -1.58655)
(8.92293 3.67033e-21 -1.53734)
(8.60617 0 -1.48942)
(8.30188 7.42995e-21 -1.44277)
(8.00931 2.11663e-21 -1.39734)
(7.72775 0 -1.35312)
(7.45657 -6.72653e-22 -1.31006)
(7.19515 -1.87258e-21 -1.26812)
(6.94293 0 -1.22727)
(6.69937 7.9795e-21 -1.18747)
(6.46398 -4.89272e-21 -1.14868)
(6.23627 -1.14307e-20 -1.11086)
(6.01584 0 -1.07397)
(5.80224 -2.3986e-23 -1.03797)
(5.59512 3.08905e-20 -1.00283)
(5.39408 0 -0.968514)
(5.19881 0 -0.934983)
(5.00896 -1.82437e-20 -0.902201)
(4.82425 -1.89716e-20 -0.870138)
(4.64439 3.91369e-20 -0.838762)
(4.4691 4.01727e-20 -0.80804)
(4.29814 4.10106e-20 -0.777949)
(4.13126 -4.16855e-20 -0.748449)
(3.96828 -8.43965e-20 -0.719533)
(3.80892 0 -0.691148)
(3.65311 0 -0.663307)
(3.5005 -8.60515e-20 -0.635941)
(3.35115 0 -0.60909)
(3.20464 0 -0.582664)
(3.06117 8.57941e-20 -0.556734)
(2.92024 0 -0.531188)
(2.78218 -8.467e-20 -0.506122)
(2.64641 -3.16456e-23 -0.481404)
(2.51339 8.30248e-20 -0.457155)
(2.38246 0 -0.433232)
(2.25422 0 -0.409775)
(2.12793 0 -0.386638)
(2.00439 1.56594e-19 -0.363989)
(1.88275 0 -0.341664)
(1.76406 -1.50903e-19 -0.319883)
(1.64725 2.95624e-19 -0.298415)
(1.53376 0 -0.277587)
(1.422 0 -0.256995)
(1.31389 0 -0.237151)
(1.2072 -2.74478e-23 -0.217395)
(1.10418 -1.3097e-19 -0.198522)
(1.00334 -2.54737e-19 -0.179825)
(0.905762 -2.47651e-19 -0.16204)
(0.81245 2.4039e-19 -0.144699)
(0.719643 0 -0.127798)
(0.635445 2.2603e-19 -0.112182)
(0.547111 0 -0.0961071)
(0.473654 2.11654e-19 -0.0823632)
(0.386632 0 -0.0664554)
(0.32501 0 -0.0549421)
(0.238967 0 -0.0391911)
(0.189091 -3.67241e-19 -0.0291601)
(0.091695 -3.53731e-19 -0.0116968)
(0.0660962 0 -0.00709066)
(-0.0327615 3.27864e-19 0.0105481)
(-0.0330305 -3.15642e-19 0.0132746)
(-0.200439 3.02616e-19 0.0479379)
(-0.233991 -2.90727e-19 0.0586864)
(-0.500353 0 0.112313)
(-0.54699 0 0.122048)
(-0.825722 0 0.162176)
(-0.509396 0 0.0796573)
(-0.382908 5.07066e-19 0.0331094)
(0.409359 1.14477e-22 -0.120551)
(0.510666 -9.70519e-19 -0.133401)
(1.21428 0 -0.250277)
(0.882844 0 -0.179333)
(1.54062 8.54077e-19 -0.302765)
(1.07479 0 -0.216589)
(1.92917 -7.77981e-19 -0.387932)
(1.56222 0 -0.320133)
(2.55345 -1.41625e-18 -0.515117)
(2.32448 0 -0.475518)
(3.37345 0 -0.675524)
(3.24158 6.15789e-19 -0.657541)
(4.32857 0 -0.865746)
(32.645 0 0.66078)
(32.947 -5.28495e-21 0.705422)
(33.2844 0 0.657199)
(33.6156 -6.63829e-21 0.495338)
(33.8773 -1.35363e-20 0.234656)
(34.019 0 -0.0931286)
(34.0121 6.75585e-21 -0.456596)
(33.8453 0 -0.829649)
(33.5191 9e-22 -1.1921)
(33.0431 -2.60346e-20 -1.52949)
(32.4332 0 -1.83251)
(31.7097 0 -2.09627)
(30.8947 -1.11528e-20 -2.31918)
(30.0104 0 -2.50195)
(29.0778 0 -2.64688)
(28.1158 0 -2.75722)
(27.1406 -1.65071e-20 -2.83674)
(26.1653 -1.52205e-20 -2.88937)
(25.2005 -1.38251e-20 -2.91899)
(24.2543 0 -2.92922)
(23.3325 0 -2.92333)
(22.439 -1.08053e-20 -2.90422)
(21.5764 9.87362e-21 -2.87439)
(20.7462 -9.00442e-21 -2.83599)
(19.949 -1.63882e-20 -2.7908)
(19.1846 2.96879e-20 -2.74036)
(18.4527 -5.42427e-23 -2.68589)
(17.7523 -1.21662e-20 -2.62843)
(17.0824 -1.0951e-20 -2.56884)
(16.4419 0 -2.50781)
(15.8294 0 -2.44591)
(15.2437 -7.80192e-21 -2.38358)
(14.6834 0 -2.32121)
(14.1474 1.21295e-20 -2.2591)
(13.6342 1.05809e-20 -2.19747)
(13.1427 -9.14102e-21 -2.13652)
(12.6717 0 -2.0764)
(12.2202 6.59233e-21 -2.01722)
(11.7869 5.46084e-21 -1.95905)
(11.3711 3.28371e-24 -1.90198)
(10.9715 -6.90592e-21 -1.84603)
(10.5875 0 -1.79124)
(10.2181 -3.4994e-21 -1.73761)
(9.86244 0 -1.68516)
(9.51986 0 -1.63389)
(9.18962 0 -1.58377)
(8.87103 1.31548e-23 -1.53479)
(8.56346 0 -1.48694)
(8.26629 -3.74308e-21 -1.44019)
(7.97897 9.18353e-21 -1.3945)
(7.70095 1.07416e-20 -1.34986)
(7.43173 0 -1.30622)
(7.17082 -1.33842e-20 -1.26356)
(6.91778 -2.89794e-20 -1.22185)
(6.67217 0 -1.18105)
(6.4336 0 -1.14112)
(6.20167 1.71372e-20 -1.10204)
(5.97603 1.77838e-20 -1.06377)
(5.75633 -1.83707e-20 -1.02629)
(5.54226 -3.76636e-20 -0.989547)
(5.33351 0 -0.953531)
(5.12978 0 -0.918194)
(4.93086 2.73692e-23 -0.883534)
(4.73639 -3.99495e-20 -0.849488)
(4.5463 0 -0.816077)
(4.36016 4.03768e-20 -0.783218)
(4.17804 0 -0.750965)
(3.99943 0 -0.719208)
(3.82456 0 -0.688037)
(3.65283 0 -0.657316)
(3.48464 3.3421e-23 -0.627165)
(3.31926 -3.13156e-23 -0.597423)
(3.15728 -7.78267e-20 -0.56824)
(2.99786 0 -0.539441)
(2.84175 -7.5791e-20 -0.511202)
(2.68804 0 -0.483343)
(2.5377 -1.46838e-19 -0.456068)
(2.38969 1.44167e-19 -0.429182)
(2.24527 -1.41396e-19 -0.402945)
(2.10316 -1.38543e-19 -0.377083)
(1.965 0 -0.351979)
(1.82901 1.32398e-19 -0.327159)
(1.69733 0 -0.303221)
(1.56754 -1.25984e-19 -0.279399)
(1.44209 -1.22658e-19 -0.256647)
(1.31943 2.38639e-19 -0.234105)
(1.20066 0 -0.212686)
(1.08706 -4.50258e-19 -0.19175)
(0.974239 0 -0.171438)
(0.871645 2.11586e-19 -0.152568)
(0.764403 0 -0.133281)
(0.674805 1.9809e-19 -0.116633)
(0.5696 0 -0.0976376)
(0.494759 3.69559e-19 -0.0837479)
(0.390954 -3.56549e-19 -0.0649706)
(0.331054 3.43664e-19 -0.0529083)
(0.215599 3.30987e-19 -0.0325649)
(0.18533 0 -0.0271679)
(0.067354 -6.13404e-19 -0.00637765)
(0.0659421 5.90485e-19 -0.00232505)
(-0.128141 0 0.0380514)
(-0.157704 2.719e-19 0.0494554)
(-0.454515 0 0.109116)
(-0.477633 0 0.114008)
(-0.769496 -4.86887e-19 0.150853)
(-0.368487 0 0.0447564)
(-0.230549 0 -0.0112619)
(0.676566 4.68473e-19 -0.186154)
(0.757253 9.06962e-19 -0.19267)
(1.56585 4.38236e-19 -0.323157)
(1.16676 0 -0.237601)
(1.9505 0 -0.383868)
(1.39319 0 -0.282187)
(2.41725 0 -0.488049)
(1.95285 6.92475e-19 -0.402899)
(3.13594 6.61477e-19 -0.636374)
(2.83065 0 -0.582988)
(4.04785 0 -0.815564)
(3.88167 0 -0.791628)
(5.07499 0 -1.02093)
(32.6453 4.24187e-21 0.371978)
(32.8778 0 0.389118)
(33.134 4.95837e-21 0.34963)
(33.3993 0 0.237454)
(33.6429 6.05716e-21 0.0531112)
(33.8334 0 -0.188714)
(33.9478 -6.34964e-21 -0.468886)
(33.9713 1.16543e-20 -0.769464)
(33.8945 2.37915e-20 -1.07529)
(33.713 7.2789e-22 -1.37436)
(33.4262 0 -1.6577)
(33.0376 0 -1.91909)
(32.5537 0 -2.15466)
(31.9837 0 -2.36234)
(31.3386 0 -2.5414)
(30.6302 0 -2.69209)
(29.871 1.48803e-20 -2.81543)
(29.0733 -1.38e-20 -2.913)
(28.2484 1.29901e-20 -2.98678)
(27.4068 0 -3.03898)
(26.5578 0 -3.07191)
(25.709 9.95179e-21 -3.08789)
(24.867 9.11758e-21 -3.08916)
(24.0368 8.33371e-21 -3.07781)
(23.2226 0 -3.05578)
(22.4272 -1.39142e-20 -3.02479)
(21.653 -2.51419e-20 -2.98638)
(20.9014 1.13325e-20 -2.94188)
(20.1733 0 -2.89248)
(19.4691 0 -2.83918)
(18.7891 0 -2.78282)
(18.1331 7.295e-21 -2.72415)
(17.5006 0 -2.66378)
(16.8911 0 -2.60223)
(16.3041 9.91295e-21 -2.53993)
(15.7388 8.58714e-21 -2.47724)
(15.1945 0 -2.41448)
(14.6703 6.18741e-21 -2.35189)
(14.1654 -1.02568e-20 -2.28967)
(13.6791 -4.14896e-21 -2.22799)
(13.2104 3.24533e-21 -2.16698)
(12.7587 0 -2.10675)
(12.3231 0 -2.04738)
(11.9029 0 -1.98894)
(11.4973 6.17842e-22 -1.93147)
(11.1056 0 -1.87501)
(10.7272 1.64044e-21 -1.81958)
(10.3614 2.60495e-21 -1.76518)
(10.0076 0 -1.71183)
(9.66517 -4.30541e-21 -1.65952)
(9.33352 0 -1.60823)
(9.01215 0 -1.55797)
(8.70049 -1.25219e-20 -1.50869)
(8.39808 2.07039e-23 -1.4604)
(8.10441 1.45035e-20 -1.41306)
(7.81906 0 -1.36665)
(7.54157 0 -1.32113)
(7.27155 -1.669e-20 -1.27649)
(7.0086 0 -1.2327)
(6.75235 3.53424e-20 -1.18972)
(6.50247 0 -1.14754)
(6.25858 0 -1.10611)
(6.02045 7.42401e-20 -1.06543)
(5.78767 7.49288e-20 -1.02544)
(5.56013 3.76906e-20 -0.986161)
(5.33736 0 -0.947501)
(5.1194 0 -0.909529)
(4.90568 3.78251e-20 -0.872118)
(4.69645 7.53931e-20 -0.835378)
(4.491 0 -0.799147)
(4.2898 7.44532e-20 -0.763574)
(4.09199 -7.37641e-20 -0.728468)
(3.89826 7.29573e-20 -0.69401)
(3.70762 -7.20179e-20 -0.659992)
(3.52095 7.10366e-20 -0.626627)
(3.33718 0 -0.593702)
(3.15743 0 -0.561462)