/*--------------------------------*- C++ -*----------------------------------*\
| =========                 |                                                 |
| \\      /  F ield         | OpenFOAM: The Open Source CFD Toolbox           |
|  \\    /   O peration     | Version:  2412                                  |
|   \\  /    A nd           | Website:  www.openfoam.com                      |
|    \\/     M anipulation  |                                                 |
\*---------------------------------------------------------------------------*/
FoamFile
{
    version     2.0;
    format      ascii;
    arch        "LSB;label=32;scalar=64";
    class       volScalarField;
    location    "1.565";
    object      p;
}
// * * * * * * * * * * * * * * * * * * * * * * * * * * * * * * * * * * * * * //

dimensions      [0 2 -2 0 0 0 0];

internalField   nonuniform List<scalar> 
12600
(
-0.01957
-154.775
-204.825
-201.529
-189.008
-177.37
-167.167
-158.038
-149.767
-142.19
-135.178
-128.635
-122.488
-116.679
-111.161
-105.896
-100.854
-96.0084
-91.3368
-86.8207
-82.4441
-78.193
-74.0552
-70.0202
-66.0785
-62.2217
-58.4424
-54.7339
-51.0901
-47.5057
-43.9756
-40.4952
-37.0604
-33.6674
-30.3126
-26.9928
-23.7048
-20.4459
-17.2134
-14.0047
-10.8176
-7.64967
-4.49894
-1.36336
1.75901
4.86998
7.97134
11.0647
14.1518
17.234
20.313
23.39
26.4665
29.5438
32.623
35.7053
38.7919
41.8836
44.9816
48.0864
51.1991
54.3199
57.4499
60.5889
63.7378
66.8961
70.0642
73.2416
76.428
79.6226
82.8241
86.0316
89.2427
92.4565
95.6687
98.8792
102.081
105.275
108.451
111.613
114.743
117.851
120.912
123.944
126.907
129.835
132.672
135.47
138.147
140.793
143.278
145.758
148.023
150.314
152.375
154.402
156.334
158.081
159.683
161.677
162.094
165.283
164.928
166.068
171.426
163.046
176.271
167.055
173.586
172.94
172.13
180.601
165.897
181.801
176.656
156.502
203.559
179.005
121.118
204.188
-24.125
-123.837
-171.269
-180.852
-177.584
-170.791
-162.997
-155.187
-147.722
-140.675
-134.031
-127.755
-121.806
-116.147
-110.744
-105.57
-100.6
-95.8114
-91.186
-86.7074
-82.3614
-78.1354
-74.0183
-70.0003
-66.0726
-62.2275
-58.4578
-54.7573
-51.1201
-47.5411
-44.0154
-40.5387
-37.1068
-33.7161
-30.3632
-27.0447
-23.7578
-20.4997
-17.2676
-14.0592
-10.8721
-7.70414
-4.55318
-1.41727
1.70552
4.817
7.91892
11.0129
14.1006
17.1836
20.2633
23.341
26.4183
29.4963
32.5763
35.6594
38.7468
41.8392
44.938
48.0436
51.157
54.2786
57.4093
60.5491
63.6987
66.8578
70.0266
73.2048
76.3919
79.5871
82.7894
85.9976
89.2094
92.4239
95.6368
98.8481
102.05
105.246
108.422
111.584
114.715
117.825
120.886
123.919
126.883
129.812
132.649
135.448
138.127
140.774
143.26
145.74
148.007
150.298
152.361
154.387
156.321
158.07
159.67
161.669
162.083
165.272
164.929
166.044
171.437
163.037
176.252
167.07
173.566
172.946
172.105
180.616
165.901
181.759
176.737
156.443
203.458
179.258
121.123
203.957
-40.9276
-102.376
-145.16
-162.592
-165.877
-163.204
-158.023
-151.836
-145.372
-138.966
-132.754
-126.782
-121.053
-115.558
-110.282
-105.205
-100.311
-95.5827
-91.0057
-86.5663
-82.252
-78.052
-73.9562
-69.9557
-66.0426
-62.2094
-58.4497
-54.7574
-51.1271
-47.5537
-44.0326
-40.5597
-37.131
-33.7428
-30.3919
-27.0751
-23.7894
-20.5322
-17.3009
-14.0929
-10.9061
-7.7383
-4.58735
-1.45133
1.67166
4.78341
7.88567
10.9801
14.0682
17.1516
20.2318
23.3101
26.3879
29.4665
32.547
35.6307
38.7186
41.8117
44.911
48.0171
51.1311
54.2533
57.3845
60.5249
63.675
66.8346
70.004
73.1826
76.3703
79.566
82.7688
85.9775
89.1898
92.4049
95.6183
98.83
102.033
105.228
108.405
111.568
114.7
117.81
120.872
123.905
126.87
129.799
132.637
135.437
138.116
140.763
143.25
145.731
147.998
150.29
152.354
154.38
156.315
158.064
159.664
161.665
162.076
165.267
164.93
166.031
171.443
163.029
176.242
167.078
173.556
172.95
172.094
180.625
165.903
181.738
176.779
156.406
203.408
179.384
121.107
203.856
-48.8298
-88.6163
-124.034
-144.537
-152.719
-153.981
-151.643
-147.396
-142.221
-136.677
-131.054
-125.492
-120.059
-114.783
-109.67
-104.72
-99.9243
-95.2743
-90.7598
-86.3707
-82.0974
-77.9308
-73.8626
-69.885
-65.9908
-62.1734
-58.4268
-54.7455
-51.1244
-47.5587
-44.0441
-40.5765
-37.1523
-33.7678
-30.42
-27.1057
-23.8221
-20.5665
-17.3365
-14.1296
-10.9436
-7.77632
-4.62577
-1.48999
1.6329
4.74466
7.84702
10.9416
14.03
17.1137
20.1943
23.273
26.3512
29.4302
32.5112
35.5954
38.6838
41.7774
44.8772
47.9839
51.0984
54.2211
57.3529
60.4938
63.6444
66.8046
69.9745
73.1537
76.3419
79.5382
82.7415
85.9508
89.1636
92.3792
95.5932
98.8055
102.009
105.205
108.383
111.546
114.678
117.789
120.852
123.885
126.851
129.781
132.62
135.42
138.1
140.748
143.236
145.717
147.985
150.277
152.342
154.369
156.305
158.055
159.653
161.659
162.067
165.259
164.93
166.012
171.452
163.018
176.229
167.089
173.539
172.955
172.075
180.64
165.903
181.71
176.842
156.347
203.344
179.587
121.076
203.653
-53.857
-80.3409
-107.25
-126.907
-137.994
-142.722
-143.326
-141.343
-137.812
-133.433
-128.633
-123.659
-118.652
-113.689
-108.811
-104.039
-99.3818
-94.8401
-90.4114
-86.0911
-81.8734
-77.7522
-73.7212
-69.7742
-65.9054
-62.1092
-58.3802
-54.7136
-51.1049
-47.5495
-44.0436
-40.5833
-37.1652
-33.7859
-30.4423
-27.1316
-23.8509
-20.5978
-17.3697
-14.1644
-10.9796
-7.81336
-4.66354
-1.52828
1.59426
4.70582
7.80811
10.9027
13.9913
17.0752
20.156
23.2351
26.3137
29.3931
32.4746
35.5592
38.6482
41.7423
44.8427
47.9499
51.065
54.1883
57.3206
60.4621
63.6133
66.774
69.9446
73.1243
76.3131
79.51
82.7139
85.9238
89.1372
92.3534
95.568
98.781
101.985
105.182
108.36
111.524
114.657
117.769
120.832
123.866
126.833
129.764
132.603
135.404
138.084
140.733
143.222
145.704
147.973
150.266
152.332
154.359
156.295
158.047
159.644
161.654
162.057
165.252
164.929
165.994
171.462
163.006
176.217
167.1
173.523
172.96
172.058
180.654
165.901
181.684
176.9
156.285
203.288
179.775
121.022
203.474
-57.1201
-75.2649
-94.8718
-111.74
-123.559
-130.454
-133.475
-133.687
-131.973
-129.003
-125.262
-121.077
-116.656
-112.133
-107.588
-103.071
-98.6098
-94.2216
-89.9139
-85.69
-81.5498
-77.4913
-73.5115
-69.6065
-65.7723
-62.0048
-58.2998
-54.6532
-51.0612
-47.5199
-44.0258
-40.5755
-37.1657
-33.7934
-30.4558
-27.15
-23.8735
-20.6239
-17.3987
-14.1957
-11.0129
-7.84822
-4.69965
-1.56537
1.55643
4.66744
7.76937
10.8638
13.9522
17.0362
20.1171
23.1963
26.2752
29.3549
32.4368
35.5218
38.6112
41.7058
44.8066
47.9143
51.03
54.1538
57.2867
60.4287
63.5805
66.7418
69.9129
73.0933
76.2826
79.4801
82.6846
85.8951
89.1091
92.326
95.5412
98.7548
101.959
105.157
108.336
111.501
114.634
117.746
120.811
123.846
126.813
129.744
132.585
135.386
138.068
140.718
143.207
145.69
147.959
150.253
152.32
154.347
156.285
158.038
159.634
161.648
162.047
165.244
164.928
165.974
171.473
162.992
176.205
167.112
173.505
172.965
172.039
180.672
165.896
181.659
176.964
156.209
203.233
179.983
120.941
203.246
-58.7167
-71.7294
-86.0562
-99.746
-110.814
-118.5
-123.028
-124.965
-124.907
-123.386
-120.836
-117.597
-113.917
-109.968
-105.87
-101.701
-97.5123
-93.3387
-89.2012
-85.1131
-81.0819
-77.1116
-73.2034
-69.3571
-65.5712
-61.8436
-58.1717
-54.5527
-50.9837
-47.4617
-43.9839
-40.5473
-37.149
-33.7865
-30.4571
-27.1582
-23.8876
-20.6428
-17.4218
-14.2223
-11.0423
-7.87997
-4.73334
-1.60064
1.51989
4.62991
7.73108
10.8249
13.913
16.9967
20.0775
23.1567
26.2357
29.3156
32.3977
35.483
38.5728
41.6677
44.769
47.8772
50.9933
54.1176
57.2511
60.3936
63.546
66.7078
69.8795
73.0605
76.2504
79.4485
82.6536
85.8648
89.0795
92.297
95.5128
98.7271
101.932
105.131
108.31
111.476
114.61
117.723
120.788
123.824
126.792
129.724
132.565
135.368
138.05
140.701
143.191
145.675
147.945
150.24
152.308
154.335
156.275
158.028
159.624
161.641
162.036
165.237
164.926
165.954
171.485
162.976
176.193
167.124
173.485
172.97
172.02
180.692
165.888
181.634
177.029
156.121
203.182
180.197
120.828
202.996
-59.1524
-68.9176
-79.6401
-90.4872
-100.128
-107.657
-112.855
-115.902
-117.122
-116.866
-115.47
-113.225
-110.375
-107.105
-103.555
-99.8273
-95.9933
-92.1044
-88.1963
-84.2934
-80.4125
-76.5645
-72.7562
-68.9917
-65.2732
-61.6013
-57.9757
-54.3951
-50.8583
-47.3632
-43.908
-40.4904
-37.1082
-33.7592
-30.4412
-27.152
-23.8895
-20.6516
-17.4364
-14.2418
-11.066
-7.90706
-4.76331
-1.63298
1.4856
4.59403
7.69393
10.7868
13.8741
16.9572
20.0376
23.1166
26.1955
29.2753
32.3575
35.443
38.533
41.6283
44.7299
47.8385
50.955
54.0798
57.2137
60.3568
63.5097
66.6721
69.8444
73.0259
76.2165
79.4152
82.621
85.8327
89.0481
92.2663
95.4829
98.6979
101.904
105.103
108.283
111.45
114.585
117.699
120.764
123.801
126.77
129.703
132.545
135.349
138.032
140.684
143.174
145.659
147.931
150.226
152.295
154.323
156.263
158.018
159.613
161.635
162.024
165.231
164.923
165.933
171.499
162.956
176.182
167.137
173.463
172.976
171.999
180.716
165.877
181.611
177.096
156.016
203.135
180.421
120.68
202.701
-58.8744
-66.44
-74.6779
-83.2367
-91.3228
-98.1926
-103.466
-107.083
-109.154
-109.873
-109.461
-108.141
-106.116
-103.562
-100.62
-97.4012
-93.9903
-90.4512
-86.8318
-83.167
-79.4824
-75.7964
-72.1221
-68.4686
-64.8422
-61.2469
-57.685
-54.1578
-50.6655
-47.2079
-43.7841
-40.3929
-37.033
-33.7029
-30.4008
-27.1252
-23.8741
-20.6459
-17.4389
-14.2512
-11.0812
-7.92728
-4.78768
-1.66083
1.45485
4.56089
7.65881
10.75
13.8361
16.9182
19.9978
23.0762
26.1547
29.2343
32.3164
35.4019
38.4919
41.5873
44.6892
47.7981
50.915
54.0402
57.1746
60.3182
63.4716
66.6345
69.8074
72.9895
76.1807
79.38
82.5865
85.7989
89.015
92.2339
95.4512
98.6669
101.874
105.074
108.255
111.422
114.558
117.673
120.739
123.777
126.747
129.681
132.524
135.329
138.012
140.665
143.157
145.643
147.915
150.211
152.282
154.31
156.252
158.007
159.602
161.628
162.011
165.224
164.919
165.912
171.515
162.933
176.171
167.15
173.439
172.981
171.978
180.743
165.86
181.59
177.165
155.892
203.095
180.649
120.495
202.359
-58.1247
-64.1023
-70.5731
-77.3768
-84.0514
-90.0685
-95.0542
-98.8359
-101.389
-102.783
-103.138
-102.602
-101.328
-99.4612
-97.1321
-94.449
-91.5002
-88.3562
-85.0723
-81.6913
-78.246
-74.7616
-71.2569
-67.7461
-64.2398
-60.7454
-57.2686
-53.8131
-50.3813
-46.9746
-43.5939
-40.2392
-36.9102
-33.6062
-30.3263
-27.0694
-23.8343
-20.6196
-17.4241
-14.2462
-11.0845
-7.93752
-4.80384
-1.68199
1.42949
4.532
7.62698
10.7158
13.7998
16.8803
19.9586
23.036
26.1137
29.1927
32.2744
35.3596
38.4496
41.545
44.647
47.7561
50.8732
53.9988
57.1335
60.2775
63.4314
66.5949
69.7683
72.9511
76.1428
79.3428
82.5499
85.7631
88.9799
92.1995
95.4176
98.6342
101.842
105.043
108.224
111.393
114.53
117.645
120.713
123.751
126.722
129.658
132.501
135.307
137.992
140.646
143.139
145.626
147.899
150.196
152.267
154.296
156.24
157.995
159.59
161.62
161.996
165.218
164.914
165.889
171.533
162.907
176.162
167.164
173.412
172.987
171.957
180.776
165.838
181.571
177.236
155.746
203.063
180.883
120.275
201.963
-57.0331
-61.8195
-66.9934
-72.4667
-77.9558
-83.1062
-87.6177
-91.2957
-94.0459
-95.8527
-96.7585
-96.8439
-96.2088
-94.9625
-93.2122
-91.0554
-88.5767
-85.8473
-82.9257
-79.8592
-76.6858
-73.4354
-70.1316
-66.7931
-63.4342
-60.066
-56.6969
-53.3333
-49.9799
-46.6402
-43.3166
-40.0106
-36.7231
-33.4545
-30.2048
-26.9736
-23.7605
-20.5646
-17.385
-14.2207
-11.0705
-7.93344
-4.80813
-1.69338
1.41208
4.50952
7.60023
10.6855
13.7665
16.8445
19.9208
22.9965
26.0729
29.1509
32.2318
35.3165
38.406
41.5012
44.6031
47.7122
50.8295
53.9553
57.0903
60.2347
63.3891
66.5531
69.727
72.9103
76.1027
79.3034
82.5111
85.725
88.9426
92.163
95.3819
98.5993
101.808
105.01
108.192
111.362
114.499
117.616
120.685
123.725
126.696
129.633
132.478
135.285
137.97
140.626
143.119
145.608
147.882
150.18
152.253
154.281
156.227
157.983
159.578
161.613
161.981
165.214
164.908
165.865
171.554
162.876
176.155
167.178
173.382
172.992
171.934
180.813
165.808
181.555
177.309
155.573
203.045
181.114
120.018
201.491
-55.681
-59.5553
-63.751
-68.2069
-72.7314
-77.0887
-81.0611
-84.4777
-87.2223
-89.2331
-90.4978
-91.0439
-90.9253
-90.2125
-88.9847
-87.3221
-85.2996
-82.9841
-80.4335
-77.6967
-74.8143
-71.8197
-68.74
-65.5971
-62.4086
-59.1885
-55.9481
-52.696
-49.4393
-46.1831
-42.9316
-39.6879
-36.4541
-33.2318
-30.0219
-26.825
-23.6412
-20.4706
-17.3127
-14.167
-11.0328
-7.90929
-4.79562
-1.6908
1.40621
4.49646
7.58108
10.6611
13.7378
16.8122
19.8855
22.9587
26.033
29.1094
32.189
35.2726
38.3614
41.456
44.5576
47.6665
50.7837
53.9096
57.0448
60.1895
63.3442
66.5086
69.6831
72.8669
76.06
79.2613
82.4698
85.6844
88.9028
92.1241
95.3439
98.5622
101.772
104.974
108.158
111.329
114.467
117.585
120.655
123.696
126.669
129.607
132.453
135.261
137.948
140.604
143.099
145.589
147.864
150.163
152.237
154.266
156.214
157.97
159.565
161.605
161.964
165.211
164.899
165.84
171.578
162.84
176.149
167.193
173.348
172.997
171.91
180.856
165.771
181.544
177.383
155.369
203.045
181.339
119.724
200.941
-54.1293
-57.2933
-60.733
-64.3978
-68.1451
-71.8143
-75.2551
-78.3346
-80.9431
-83.0015
-84.4659
-85.3267
-85.6018
-85.3274
-84.5538
-83.3398
-81.746
-79.8308
-77.6478
-75.2446
-72.6622
-69.9359
-67.0949
-64.1638
-61.1627
-58.1081
-55.0134
-51.8896
-48.7455
-45.5882
-42.4233
-39.2553
-36.0876
-32.9229
-29.7632
-26.61
-23.4642
-20.3265
-17.1971
-14.076
-10.9631
-7.85794
-4.76007
-1.66884
1.41652
4.4968
7.5729
10.6457
13.7162
16.7854
19.8543
22.9238
25.9951
29.0689
32.1465
35.2284
38.3159
41.4095
44.5103
47.6187
50.7357
53.8614
56.9966
60.1414
63.2964
66.4612
69.6361
72.8205
76.0141
79.2161
82.4254
85.6408
88.86
92.0822
95.303
98.5223
101.733
104.937
108.122
111.293
114.433
117.552
120.623
123.666
126.64
129.579
132.426
135.236
137.924
140.582
143.078
145.569
147.845
150.146
152.221
154.25
156.201
157.957
159.552
161.597
161.945
165.205
164.889
165.814
171.606
162.798
176.146
167.208
173.31
173.002
171.885
180.907
165.724
181.538
177.458
155.128
203.068
181.555
119.387
200.295
-52.4256
-55.0261
-57.8687
-60.908
-64.0288
-67.1163
-70.0688
-72.79
-75.1887
-77.1866
-78.7269
-79.778
-80.332
-80.3992
-80.0042
-79.1834
-77.9809
-76.443
-74.6159
-72.5426
-70.2627
-67.8111
-65.218
-62.5097
-59.708
-56.8315
-53.8957
-50.9133
-47.895
-44.8493
-41.7834
-38.7031
-35.6129
-32.5167
-29.4174
-26.3174
-23.2183
-20.1215
-17.028
-13.9383
-10.8528
-7.77151
-4.69438
-1.62113
1.44865
4.51547
7.57998
10.6428
13.7048
16.7667
19.8294
22.8937
25.9605
29.0306
32.1051
35.1845
38.27
41.362
44.4615
47.5689
50.6851
53.8104
56.9454
60.0902
63.2452
66.4103
69.5855
72.7704
75.9646
79.1673
82.3773
85.5936
88.8137
92.0369
95.2587
98.4791
101.691
104.896
108.082
111.255
114.396
117.517
120.589
123.633
126.609
129.549
132.398
135.209
137.899
140.559
143.056
145.548
147.825
150.127
152.204
154.234
156.186
157.943
159.539
161.588
161.925
165.205
164.876
165.788
171.637
162.749
176.147
167.223
173.268
173.006
171.859
180.966
165.665
181.539
177.536
154.846
203.117
181.759
119.006
199.548
-50.5987
-52.7465
-55.1105
-57.6486
-60.2616
-62.8631
-65.384
-67.7578
-69.914
-71.7843
-73.3109
-74.4524
-75.1851
-75.5017
-75.4069
-74.9175
-74.0603
-72.8682
-71.3773
-69.624
-67.6435
-65.4686
-63.129
-60.6511
-58.0581
-55.3698
-52.6033
-49.773
-46.891
-43.9676
-41.011
-38.0285
-35.0257
-32.0075
-28.9777
-25.9395
-22.8954
-19.8474
-16.7972
-13.7457
-10.6939
-7.64238
-4.59138
-1.54105
1.50868
4.558
7.60726
10.6569
13.7074
16.7594
19.8136
22.8706
25.9312
28.9961
32.0661
35.1419
38.2242
41.3137
44.4112
47.517
50.632
53.7564
56.8908
60.0352
63.1901
66.3552
69.5307
72.7159
75.9107
79.114
82.3247
85.5419
88.763
91.9872
95.2101
98.4319
101.645
104.851
108.039
111.213
114.356
117.478
120.552
123.598
126.575
129.518
132.368
135.181
137.872
140.533
143.032
145.526
147.805
150.108
152.186
154.217
156.172
157.928
159.525
161.58
161.903
165.205
164.86
165.76
171.673
162.692
176.151
167.239
173.221
173.01
171.832
181.034
165.593
181.548
177.616
154.517
203.194
181.957
118.577
198.701
-48.6702
-50.4507
-52.4268
-54.5584
-56.7567
-58.9532
-61.1007
-63.1544
-65.0625
-66.7694
-68.2228
-69.3798
-70.2094
-70.693
-70.8226
-70.5997
-70.0358
-69.1505
-67.9686
-66.5181
-64.828
-62.9271
-60.8429
-58.6006
-56.2234
-53.7318
-51.1438
-48.475
-45.7388
-42.9468
-40.1088
-37.2328
-34.326
-31.394
-28.4417
-25.4731
-22.4914
-19.4994
-16.4991
-13.4924
-10.4805
-7.46445
-4.445
-1.42267
1.60229
4.62974
7.65976
10.6925
13.7282
16.7673
19.8103
22.8575
25.9097
28.9674
32.0312
35.1017
38.1797
41.2655
44.3599
47.4633
50.5763
53.6991
56.8324
59.9759
63.1303
66.2952
69.4707
72.6561
75.8513
79.0552
82.2666
85.4847
88.7068
91.9322
95.1563
98.3794
101.594
104.802
107.991
111.167
114.312
117.436
120.512
123.56
126.539
129.483
132.335
135.151
137.843
140.507
143.007
145.503
147.783
150.088
152.168
154.199
156.157
157.913
159.511
161.572
161.879
165.207
164.842
165.732
171.714
162.627
176.16
167.256
173.168
173.012
171.805
181.113
165.506
181.569
177.699
154.141
203.3
182.163
118.114
197.766
-46.6572
-48.1371
-49.7954
-51.5939
-53.4509
-55.3096
-57.1373
-58.9048
-60.5753
-62.105
-63.4499
-64.5701
-65.4334
-66.0156
-66.3012
-66.2816
-65.9563
-65.3331
-64.4261
-63.2541
-61.839
-60.2039
-58.3724
-56.3674
-54.2108
-51.9226
-49.5211
-47.0224
-44.4411
-41.7896
-39.0787
-36.3179
-33.5151
-30.6771
-27.8097
-24.9177
-22.0052
-19.0755
-16.1314
-13.1753
-10.2089
-7.23378
-4.25104
-1.26158
1.73399
4.73521
7.74188
10.7539
13.7712
16.7941
19.8228
22.8575
25.8988
28.9469
32.0025
35.0658
38.1377
41.2183
44.3084
47.4081
50.5181
53.6385
56.7699
59.912
63.0654
66.2295
69.4046
72.59
75.7853
78.9896
82.2017
85.4206
88.6437
91.8703
95.0958
98.3204
101.537
104.746
107.937
111.116
114.262
117.389
120.467
123.517
126.498
129.445
132.3
135.117
137.812
140.478
142.98
145.479
147.759
150.067
152.148
154.18
156.141
157.897
159.497
161.562
161.852
165.215
164.819
165.704
171.759
162.552
176.174
167.274
173.109
173.013
171.776
181.204
165.402
181.602
177.785
153.706
203.431
182.4
117.648
196.788
-44.5726
-45.8047
-47.2004
-48.7233
-50.2973
-51.8735
-53.4289
-54.945
-56.3963
-57.7493
-58.9682
-60.0185
-60.8699
-61.4971
-61.8807
-62.0066
-61.8663
-61.4583
-60.7875
-59.8639
-58.7018
-57.318
-55.7312
-53.9608
-52.0259
-49.9453
-47.7365
-45.4156
-42.9974
-40.4951
-37.9202
-35.283
-32.5925
-29.8563
-27.0813
-24.2729
-21.4361
-18.575
-15.693
-12.7931
-9.87753
-6.94834
-4.0071
-1.0551
1.90671
4.87753
7.85689
10.8444
13.8398
16.8431
19.8543
22.8735
25.9011
28.9371
31.9821
35.0362
38.1
41.1736
44.2577
47.3523
50.4581
53.5749
56.7033
59.8431
62.9946
66.1574
69.3316
72.5164
75.7116
78.916
82.1285
85.3481
88.5722
91.8
95.0269
98.2531
101.471
104.683
107.876
111.057
114.206
117.335
120.415
123.468
126.452
129.402
132.259
135.08
137.777
140.446
142.95
145.452
147.734
150.045
152.127
154.161
156.124
157.88
159.483
161.551
161.826
165.22
164.793
165.675
171.811
162.466
176.195
167.293
173.045
173.012
171.748
181.306
165.28
181.649
177.875
153.217
203.582
182.696
117.178
195.786
-42.4269
-43.4534
-44.6305
-45.9236
-47.2614
-48.6004
-49.924
-51.2215
-52.4754
-53.6606
-54.7484
-55.7101
-56.5191
-57.1515
-57.5869
-57.8088
-57.8042
-57.5654
-57.09
-56.3807
-55.4445
-54.2921
-52.9365
-51.3926
-49.6763
-47.8039
-45.7913
-43.6538
-41.4058
-39.0604
-36.6298
-34.1248
-31.5549
-28.9288
-26.2538
-23.5364
-20.7823
-17.9963
-15.1825
-12.3444
-9.485
-6.60675
-3.71171
-0.801592
2.12225
5.05869
8.00694
10.9663
13.9363
16.9167
19.9074
22.9082
25.9192
28.9405
31.9723
35.0148
38.0683
41.1329
44.2092
47.297
50.3969
53.5087
56.6329
59.7691
62.9178
66.0784
69.2508
72.4344
75.6288
78.8329
82.0455
85.2654
88.4903
91.7191
94.9475
98.1754
101.395
104.609
107.805
110.988
114.14
117.272
120.356
123.412
126.399
129.353
132.213
135.038
137.738
140.41
142.917
145.422
147.707
150.02
152.105
154.14
156.106
157.863
159.468
161.541
161.797
165.23
164.762
165.647
171.867
162.371
176.22
167.314
172.974
173.009
171.718
181.422
165.139
181.715
177.969
152.712
203.74
183.089
116.796
194.811
-40.2281
-41.0833
-42.0772
-43.1774
-44.3166
-45.4556
-46.5822
-47.6906
-48.7693
-49.7997
-50.759
-51.624
-52.3721
-52.9819
-53.4343
-53.7122
-53.8008
-53.6888
-53.3688
-52.838
-52.0974
-51.1517
-50.0087
-48.6784
-47.1729
-45.5051
-43.6888
-41.7374
-39.6644
-37.4824
-35.2034
-32.8384
-30.3974
-27.8894
-25.3225
-22.7039
-20.0398
-17.3358
-14.5967
-11.8266
-9.02895
-6.2069
-3.36297
-0.499323
2.38228
5.28033
8.19369
11.1213
14.0627
17.017
19.984
22.9634
25.9551
28.959
31.9752
35.0036
38.0446
41.098
44.1644
47.2434
50.3357
53.4408
56.5593
59.6906
62.8351
65.9922
69.1619
72.3433
75.5361
78.7391
81.9511
85.171
88.3962
91.6258
94.8554
98.0849
101.307
104.523
107.722
110.908
114.063
117.199
120.286
123.346
126.337
129.295
132.159
134.988
137.692
140.369
142.879
145.388
147.676
149.993
152.08
154.118
156.086
157.845
159.452
161.53
161.767
165.241
164.727
165.626
171.925
162.263
176.26
167.335
172.897
173.002
171.693
181.547
164.978
181.799
178.066
152.036
203.896
183.577
116.534
193.901
-37.9832
-38.6948
-39.5344
-40.4716
-41.4431
-42.4128
-43.3713
-44.3166
-45.2414
-46.1317
-46.9699
-47.7369
-48.4143
-48.9839
-49.4283
-49.7312
-49.8781
-49.8559
-49.6546
-49.2673
-48.6906
-47.9244
-46.9715
-45.8376
-44.5304
-43.0594
-41.4353
-39.6694
-37.7734
-35.759
-33.6372
-31.419
-29.1142
-26.7321
-24.2812
-21.7692
-19.2028
-16.5881
-13.9306
-11.235
-8.50532
-5.74521
-2.95772
-0.145501
2.68926
5.54464
8.41914
11.3114
14.2205
17.1455
20.0858
23.0409
26.0106
28.9944
31.9924
35.0044
38.0305
41.0706
44.1249
47.1932
50.2759
53.3725
56.4835
59.6082
62.7471
65.8992
69.0648
72.2428
75.4329
78.6338
81.8443
85.0633
88.2882
91.5181
94.7484
97.9793
101.203
104.422
107.623
110.812
113.971
117.11
120.202
123.267
126.263
129.226
132.095
134.929
137.638
140.321
142.834
145.349
147.64
149.962
152.052
154.093
156.064
157.827
159.434
161.519
161.735
165.254
164.687
165.6
171.985
162.157
176.292
167.364
172.818
172.992
171.662
181.688
164.8
181.907
178.165
151.409
204.026
184.204
116.435
193.108
-35.6978
-36.2886
-36.9976
-37.7964
-38.6253
-39.451
-40.2661
-41.0708
-41.861
-42.6264
-43.3528
-44.0252
-44.6284
-45.1473
-45.5669
-45.8725
-46.0504
-46.0874
-45.9724
-45.6963
-45.2526
-44.6377
-43.8503
-42.8922
-41.767
-40.4809
-39.0411
-37.4563
-35.7362
-33.8906
-31.9295
-29.8629
-27.7005
-25.4512
-23.1236
-20.7256
-18.2644
-15.7466
-13.1779
-10.5637
-7.90853
-5.21657
-2.49132
0.264061
3.04694
5.85497
8.68627
11.5391
14.4122
17.3044
20.2148
23.1425
26.0873
29.0483
32.0257
35.0187
38.0277
41.0522
44.0923
47.1478
50.2189
53.3051
56.4068
59.5232
62.6547
65.8003
68.9603
72.1333
75.3193
78.5167
81.7247
84.9416
88.1653
91.3945
94.6249
97.8564
101.081
104.302
107.506
110.698
113.861
117.004
120.1
123.171
126.172
129.141
132.016
134.857
137.571
140.262
142.78
145.302
147.598
149.925
152.02
154.066
156.039
157.809
159.415
161.507
161.702
165.268
164.645
165.589
172.047
162.039
176.338
167.396
172.73
172.976
171.649
181.827
164.61
182.039
178.259
150.757
204.1
184.942
116.558
192.457
-33.3767
-33.8656
-34.4636
-35.1442
-35.8514
-36.5541
-37.2464
-37.9301
-38.603
-39.2576
-39.8827
-40.4663
-40.9959
-41.4592
-41.8436
-42.1363
-42.3248
-42.3968
-42.3411
-42.1478
-41.8086
-41.3174
-40.6702
-39.8654
-38.9034
-37.7868
-36.5198
-35.1083
-33.5594
-31.8808
-30.0811
-28.1689
-26.1529
-24.0418
-21.8438
-19.5668
-17.2179
-14.8041
-12.3315
-9.80579
-7.23199
-4.61469
-1.9579
0.734793
3.46031
6.21586
8.99919
11.8082
14.6412
17.4967
20.3736
23.2707
26.1875
29.123
32.0769
35.0485
38.038
41.0445
44.0684
47.1089
50.1665
53.2403
56.3308
59.437
62.5594
65.6967
68.8494
72.0159
75.1962
78.3887
81.5925
84.806
88.0271
91.2545
94.4839
97.7151
100.941
104.162
107.368
110.563
113.729
116.877
119.978
123.054
126.061
129.038
131.919
134.769
137.489
140.188
142.714
145.244
147.547
149.881
151.982
154.034
156.008
157.789
159.392
161.495
161.669
165.28
164.603
165.567
172.107
161.923
176.382
167.433
172.644
172.955
171.635
181.971
164.415
182.191
178.343
150.132
204.092
185.762
116.952
191.993
-31.0239
-31.4266
-31.9299
-32.5093
-33.112
-33.7094
-34.2963
-34.8755
-35.4464
-36.0035
-36.5378
-37.0395
-37.4988
-37.9054
-38.2489
-38.5185
-38.703
-38.7917
-38.7737
-38.6392
-38.3793
-37.9865
-37.455
-36.7806
-35.9612
-34.9965
-33.8879
-32.6386
-31.2529
-29.7365
-28.0958
-26.3381
-24.4707
-22.5014
-20.4378
-18.2873
-16.0571
-13.7541
-11.3845
-8.95418
-6.46861
-3.93269
-1.3508
1.27301
3.93531
6.63286
9.36303
12.1233
14.9117
17.7264
20.5659
23.4288
26.3142
29.2209
32.1485
35.0961
38.0634
41.0496
44.055
47.0784
50.1204
53.1799
56.2573
59.3515
62.4629
65.5902
68.7338
71.892
75.065
78.2508
81.449
84.6575
87.8745
91.0985
94.3256
97.5551
100.78
104.002
107.209
110.406
113.575
116.726
119.832
122.914
125.927
128.911
131.8
134.659
137.387
140.097
142.631
145.172
147.483
149.825
151.935
153.996
155.971
157.768
159.365
161.482
161.639
165.289
164.565
165.563
172.16
161.814
176.431
167.478
172.556
172.931
171.637
182.11
164.222
182.363
178.425
149.583
203.982
186.62
117.667
191.749
-28.6431
-28.9727
-29.3949
-29.8872
-30.4001
-30.9068
-31.403
-31.8919
-32.3742
-32.8456
-33.2991
-33.7266
-34.1201
-34.4713
-34.7717
-35.012
-35.1829
-35.2748
-35.2779
-35.1829
-34.981
-34.6641
-34.2254
-33.6594
-32.9618
-32.1303
-31.1638
-30.0629
-28.8297
-27.4675
-25.9808
-24.3748
-22.6555
-20.8294
-18.9031
-16.8835
-14.7771
-12.5907
-10.3303
-8.00202
-5.61134
-3.16346
-0.663037
1.88554
4.47849
7.11219
9.78367
12.49
15.2289
17.9981
20.796
23.6206
26.471
29.3455
32.2436
35.164
38.1065
41.0699
44.0542
47.0583
50.0826
53.1257
56.1882
59.2685
62.3672
65.4826
68.6154
71.7636
74.9276
78.1051
81.2959
84.4977
87.7091
90.928
94.1512
97.3774
100.6
103.821
107.027
110.225
113.396
116.55
119.66
122.747
125.766
128.758
131.654
134.524
137.261
139.983
142.526
145.08
147.402
149.755
151.875
153.949
155.925
157.745
159.331
161.469
161.612
165.292
164.536
165.552
172.201
161.726
176.478
167.536
172.477
172.906
171.651
182.238
164.046
182.548
178.498
149.187
203.785
187.475
118.734
191.767
-26.2374
-26.505
-26.8576
-27.2746
-27.7099
-28.1383
-28.5563
-28.9672
-29.3725
-29.7689
-30.1507
-30.5115
-30.8445
-31.1432
-31.4003
-31.6085
-31.7595
-31.8452
-31.8571
-31.7865
-31.6251
-31.3651
-30.9992
-30.5211
-29.9253
-29.2079
-28.3661
-27.3984
-26.3048
-25.0865
-23.7458
-22.2863
-20.712
-19.0281
-17.24
-15.3536
-13.3746
-11.3094
-9.1636
-6.9432
-4.65362
-2.30015
0.112387
2.57936
5.09672
7.66052
10.2675
12.9143
15.5985
18.3173
21.0689
23.8509
26.6621
29.5007
32.3658
35.2558
38.1704
41.108
44.0688
47.0511
50.0554
53.0799
56.1254
59.1898
62.274
65.3759
68.4962
71.6327
74.786
77.9535
81.1354
84.3287
87.5329
90.7451
93.9628
97.184
100.403
103.621
106.826
110.023
113.194
116.35
119.462
122.553
125.578
128.577
131.481
134.36
137.108
139.842
142.397
144.964
147.301
149.666
151.8
153.889
155.866
157.719
159.29
161.455
161.593
165.283
164.525
165.557
172.22
161.676
176.502
167.61
172.406
172.888
171.684
182.345
163.911
182.74
178.575
149.024
203.551
188.313
120.168
192.078
-23.8098
-24.0245
-24.3173
-24.6691
-25.0371
-25.3979
-25.7481
-26.0915
-26.4297
-26.7604
-27.0791
-27.3802
-27.6584
-27.9081
-28.1236
-28.2986
-28.4263
-28.4997
-28.5115
-28.4539
-28.3194
-28.1005
-27.7902
-27.3818
-26.8695
-26.248
-25.5135
-24.663
-23.6947
-22.6079
-21.4033
-20.0823
-18.6476
-17.1025
-15.4512
-13.6982
-11.8485
-9.9075
-7.88042
-5.77276
-3.5897
-1.3365
0.98209
3.36126
5.79687
8.28466
10.8212
13.4028
16.0267
18.6898
21.3901
24.1248
26.8926
29.6909
32.5192
35.3752
38.2586
41.1673
44.1017
47.0594
50.0412
53.0448
56.0712
59.1177
62.1855
65.2719
68.378
71.5011
74.6422
77.798
80.9695
84.1528
87.3483
90.5521
93.7629
96.9775
100.192
103.404
106.606
109.8
112.971
116.126
119.24
122.334
125.363
128.368
131.279
134.168
136.926
139.673
142.241
144.822
147.176
149.553
151.706
153.815
155.792
157.687
159.24
161.439
161.585
165.259
164.543
165.56
172.211
161.687
176.517
167.709
172.349
172.89
171.736
182.421
163.848
182.93
178.675
149.181
203.325
189.166
122.001
192.707
-21.3628
-21.5325
-21.7738
-22.069
-22.3785
-22.6804
-22.972
-23.2567
-23.5366
-23.81
-24.073
-24.3211
-24.5498
-24.7546
-24.9308
-25.0731
-25.176
-25.2334
-25.239
-25.1861
-25.0679
-24.8778
-24.6088
-24.2547
-23.8093
-23.2671
-22.6233
-21.874
-21.016
-20.0474
-18.967
-17.775
-16.472
-15.0601
-13.5418
-11.9205
-10.1999
-8.38443
-6.47858
-4.48724
-2.4151
-0.267177
1.952
4.23759
6.58553
8.99131
11.4515
13.962
16.52
19.1219
21.7657
24.448
27.1676
29.9213
32.7086
35.5265
38.3751
41.2514
44.1562
47.0863
50.043
53.0231
56.0279
59.0543
62.1038
65.1727
68.2629
71.3707
74.498
77.6404
80.8
83.9718
87.1573
90.3512
93.5538
96.7602
99.9682
103.174
106.372
109.561
112.73
115.883
118.998
122.092
125.125
128.133
131.052
133.948
136.716
139.474
142.058
144.651
147.025
149.416
151.589
153.723
155.701
157.649
159.18
161.421
161.592
165.214
164.603
165.567
172.165
161.787
176.495
167.847
172.322
172.936
171.81
182.459
163.889
183.102
178.846
149.734
203.075
190.111
124.349
193.658
-18.8989
-19.0302
-19.227
-19.4729
-19.7314
-19.9823
-20.2228
-20.4566
-20.6856
-20.9088
-21.1229
-21.324
-21.5085
-21.6726
-21.8123
-21.9234
-22.0012
-22.0406
-22.0361
-21.9821
-21.8724
-21.7012
-21.4622
-21.1494
-20.7568
-20.279
-19.7107
-19.0473
-18.285
-17.4207
-16.452
-15.3776
-14.1971
-12.9107
-11.5197
-10.026
-8.43232
-6.7418
-4.95797
-3.08499
-1.12685
0.911846
3.02702
5.21392
7.46874
9.78683
12.1649
14.5984
17.0849
19.62
22.2019
24.8265
27.4929
30.1972
32.939
35.7146
38.5244
41.3646
44.2363
47.1355
50.064
53.0176
55.9985
59.0021
62.0311
65.0804
68.1528
71.2434
74.3552
77.4826
80.6288
83.7874
86.9615
90.144
93.3373
96.5341
99.7347
102.933
106.125
109.309
112.474
115.623
118.738
121.831
124.866
127.877
130.802
133.703
136.482
139.249
141.849
144.453
146.85
149.254
151.45
153.613
155.591
157.602
159.112
161.4
161.622
165.14
164.719
165.564
172.08
162.006
176.419
168.054
172.321
173.06
171.909
182.456
164.111
183.235
179.132
150.769
202.669
191.309
127.448
194.912
-16.4203
-16.519
-16.6772
-16.8802
-17.0941
-17.3004
-17.4966
-17.686
-17.8707
-18.05
-18.2211
-18.3807
-18.5258
-18.6531
-18.7595
-18.8414
-18.8948
-18.9154
-18.8985
-18.8393
-18.7326
-18.573
-18.355
-18.073
-17.7215
-17.2952
-16.7887
-16.1974
-15.5167
-14.743
-13.8731
-12.9046
-11.8357
-10.6657
-9.39448
-8.0227
-6.55165
-4.98353
-3.32068
-1.56643
0.276168
2.203
4.2107
6.2947
8.4517
10.6769