/*--------------------------------*- C++ -*----------------------------------*\
| =========                 |                                                 |
| \\      /  F ield         | OpenFOAM: The Open Source CFD Toolbox           |
|  \\    /   O peration     | Version:  2412                                  |
|   \\  /    A nd           | Website:  www.openfoam.com                      |
|    \\/     M anipulation  |                                                 |
\*---------------------------------------------------------------------------*/
FoamFile
{
    version     2.0;
    format      ascii;
    arch        "LSB;label=32;scalar=64";
    class       volVectorField;
    location    "0.945";
    object      U_0;
}
// * * * * * * * * * * * * * * * * * * * * * * * * * * * * * * * * * * * * * //

dimensions      [0 1 -1 0 0 0 0];

internalField   nonuniform List<vector> 
12600
(
(18.7382 1.25451e-21 2.09506)
(11.6204 1.6111e-20 0.451104)
(7.35193 1.89377e-20 -0.477939)
(5.09029 0 -0.709353)
(3.97737 1.71154e-20 -0.682452)
(3.33663 1.59382e-20 -0.60774)
(2.89533 0 -0.540046)
(2.56403 0 -0.484581)
(2.30433 -4.7906e-20 -0.439105)
(2.09412 0 -0.401347)
(1.91966 2.00917e-20 -0.36946)
(1.77204 1.83961e-20 -0.342116)
(1.64516 -1.68518e-20 -0.318365)
(1.53466 0 -0.297512)
(1.43736 -1.41224e-20 -0.279031)
(1.35088 0 -0.26252)
(1.2734 4.74475e-20 -0.247663)
(1.20347 0 -0.23421)
(1.13997 -1.98546e-20 -0.221961)
(1.08199 -1.81566e-20 -0.21075)
(1.02879 1.65726e-20 -0.200445)
(0.979759 5.42745e-24 -0.190931)
(0.934388 0 -0.182117)
(0.892254 -2.49907e-20 -0.173923)
(0.852996 0 -0.166281)
(0.816307 0 -0.159135)
(0.781924 -1.85163e-20 -0.152433)
(0.749619 0 -0.146133)
(0.719195 4.06089e-24 -0.140198)
(0.690478 1.33689e-20 -0.134594)
(0.663316 1.1898e-20 -0.129293)
(0.637577 1.05356e-20 -0.124268)
(0.613139 -9.27408e-21 -0.119497)
(0.589899 -1.62129e-20 -0.114959)
(0.567761 -1.40523e-20 -0.110636)
(0.546639 1.20439e-20 -0.106512)
(0.526459 0 -0.102572)
(0.50715 -8.50354e-21 -0.0988028)
(0.48865 0 -0.0951916)
(0.470902 5.48004e-21 -0.0917276)
(0.453854 0 -0.0884008)
(0.437458 1.74874e-23 -0.0852018)
(0.421671 0 -0.0821222)
(0.406451 1.59188e-23 -0.079154)
(0.391764 -4.15861e-22 -0.0762901)
(0.377573 2.13837e-21 -0.0735238)
(0.363849 -3.7387e-21 -0.070849)
(0.350559 0 -0.0682596)
(0.337679 0 -0.0657507)
(0.325181 -7.68878e-21 -0.0633169)
(0.313043 -1.75314e-20 -0.0609537)
(0.301241 -1.9472e-20 -0.0586566)
(0.289755 1.94078e-23 -0.0564217)
(0.278564 -2.2752e-20 -0.0542449)
(0.267651 0 -0.0521227)
(0.256997 2.53768e-20 -0.0500515)
(0.246586 2.64494e-20 -0.0480282)
(0.236403 2.73683e-20 -0.0460497)
(0.226433 0 -0.0441131)
(0.216662 0 -0.0422158)
(0.207076 0 -0.040355)
(0.197665 -5.98028e-20 -0.0385287)
(0.188416 0 -0.0367341)
(0.17932 0 -0.0349698)
(0.170362 1.22926e-19 -0.0332328)
(0.161542 0 -0.0315228)
(0.152839 0 -0.0298361)
(0.144261 0 -0.0281738)
(0.135783 -1.23074e-19 -0.0265312)
(0.127421 1.22495e-19 -0.0249115)
(0.119144 1.21688e-19 -0.0233085)
(0.110981 2.34378e-23 -0.0217278)
(0.10289 -1.19502e-19 -0.0201613)
(0.0949181 0 -0.0186179)
(0.0870105 1.16635e-19 -0.0170872)
(0.0792327 0 -0.0155815)
(0.0715178 0 -0.0140883)
(0.0639485 0 -0.0126229)
(0.0564552 2.86753e-23 -0.0111725)
(0.0491146 2.14303e-19 -0.0097511)
(0.0419073 2.09812e-19 -0.0083557)
(0.0347991 -2.05215e-19 -0.00697895)
(0.0280088 -2.00405e-19 -0.00566365)
(0.0210869 0 -0.00432265)
(0.0148906 0 -0.00312117)
(0.00824899 3.70748e-19 -0.00183436)
(0.00220386 -7.20427e-19 -0.000662045)
(-0.00229193 6.99747e-19 0.000214993)
(-0.0123053 3.38323e-19 0.00214009)
(-0.0077729 0 0.00129678)
(-0.0271765 -6.30263e-19 0.00501961)
(-0.017498 3.08582e-19 0.00312011)
(-0.027926 -2.93932e-19 0.0052373)
(-0.0444775 5.68991e-19 0.00822077)
(-0.00454913 0 0.000943484)
(-0.0904386 0 0.0171355)
(0.00707609 0 -0.00172698)
(-0.0665382 0 0.0131669)
(-0.0730895 0 0.0132197)
(0.0113136 0 -0.00168316)
(-0.164195 -4.04634e-19 0.0311399)
(0.055894 -8.82307e-19 -0.0107693)
(-0.133639 -7.00021e-19 0.0263565)
(-0.0854049 0 0.0149475)
(0.0435281 0 -0.00730396)
(-0.257201 0 0.0488456)
(0.0907175 -7.22128e-19 -0.0177158)
(-0.125944 -1.08173e-18 0.025682)
(-0.218542 6.03593e-19 0.0398003)
(0.170044 0 -0.0319486)
(-0.308154 -8.85892e-19 0.0595983)
(-0.146605 0 0.0249732)
(0.248678 -1.02193e-18 -0.0454808)
(-0.495661 7.27596e-19 0.0950361)
(-0.159565 -1.0279e-18 0.0265849)
(0.255972 -9.01678e-19 -0.0476306)
(-0.362024 7.22436e-19 0.0699675)
(-0.0726692 -1.5752e-22 0.0123425)
(-0.0582431 7.21177e-19 0.011436)
(-0.131857 0 0.0249709)
(29.1483 -1.26644e-21 4.02703)
(25.1059 0 1.85855)
(20.2441 -1.9167e-20 -0.213886)
(16.0781 0 -1.21253)
(13.119 -1.73429e-20 -1.50806)
(11.0765 -3.04512e-20 -1.51905)
(9.60442 -1.4095e-20 -1.44142)
(8.49249 0 -1.34381)
(7.61968 3.5594e-22 -1.24843)
(6.91317 -2.1914e-20 -1.16136)
(6.32734 2.01201e-20 -1.08329)
(5.83215 1.84708e-20 -1.01348)
(5.40699 -1.69543e-20 -0.95092)
(5.03721 1.55591e-20 -0.894646)
(4.71205 2.86048e-20 -0.843792)
(4.42343 0 -0.797624)
(4.16516 -6.46514e-23 -0.755522)
(3.93241 2.19736e-20 -0.716967)
(3.72135 2.01434e-20 -0.681517)
(3.52889 0 -0.648803)
(3.35252 0 -0.618509)
(3.19018 1.53169e-20 -0.590367)
(3.04016 0 -0.564145)
(2.90101 1.26685e-20 -0.539645)
(2.77151 -2.29714e-20 -0.516696)
(2.65063 0 -0.495148)
(2.53748 1.87673e-20 -0.474869)
(2.43129 0 -0.455746)
(2.3314 -1.515e-20 -0.437676)
(2.23721 -2.7084e-20 -0.42057)
(2.14823 -2.40999e-20 -0.404349)
(2.06399 -1.0664e-20 -0.388941)
(1.9841 9.38446e-21 -0.374281)
(1.9082 3.28199e-20 -0.360314)
(1.83597 2.84402e-20 -0.346988)
(1.76714 0 -0.334255)
(1.70143 0 -0.322073)
(1.63863 -1.7263e-23 -0.310404)
(1.57851 0 -0.299212)
(1.5209 -5.53233e-21 -0.288466)
(1.46561 0 -0.278135)
(1.41248 -5.88132e-21 -0.268193)
(1.36138 0 -0.258614)
(1.31216 -1.51053e-21 -0.249375)
(1.26471 0 -0.240456)
(1.21891 -2.1532e-21 -0.231836)
(1.17465 0 -0.223496)
(1.13183 0 -0.215419)
(1.09037 6.49956e-21 -0.20759)
(1.05018 0 -0.199992)
(1.01117 0 -0.192613)
(0.973285 0 -0.185437)
(0.936445 2.12614e-20 -0.178455)
(0.900581 4.55891e-20 -0.171652)
(0.865639 0 -0.165019)
(0.831554 0 -0.158545)
(0.798278 -2.6425e-20 -0.15222)
(0.765754 -2.7367e-20 -0.146034)
(0.733937 0 -0.139978)
(0.702779 0 -0.134045)
(0.672239 0 -0.128226)
(0.642276 0 -0.122516)
(0.612849 -6.02552e-20 -0.116903)
(0.583929 6.07624e-20 -0.111387)
(0.555472 -1.22226e-19 -0.105954)
(0.527463 0 -0.100607)
(0.49985 0 -0.095332)
(0.472641 0 -0.0901351)
(0.44577 4.72689e-23 -0.0849975)
(0.419271 -1.21324e-19 -0.079934)
(0.39306 -1.20414e-19 -0.0749194)
(0.367208 2.38605e-19 -0.0699781)
(0.341605 3.58547e-23 -0.0650769)
(0.316367 -1.16558e-19 -0.0602523)
(0.291353 -1.14975e-19 -0.0554614)
(0.26673 0 -0.0507545)
(0.242327 0 -0.0460783)
(0.218355 0 -0.041497)
(0.194643 2.14516e-19 -0.0369512)
(0.171381 0 -0.0325075)
(0.148546 0 -0.028128)
(0.126008 2.00848e-19 -0.0238252)
(0.104436 1.9593e-19 -0.0196868)
(0.0824867 0 -0.0154978)
(0.0627245 0 -0.011711)
(0.041586 0 -0.00766522)
(0.0225061 7.01215e-19 -0.00404611)
(0.00733143 -4.04373e-23 -0.00107317)
(-0.022661 3.28544e-19 0.00455444)
(-0.0118212 -3.19605e-19 0.00253235)
(-0.06984 6.10786e-19 0.0137734)
(-0.0410649 2.98692e-19 0.00773594)
(-0.0768686 5.68493e-19 0.0154486)
(-0.120029 0 0.0225043)
(-0.0134377 0 0.00341911)
(-0.257992 0 0.0498262)
(0.0276102 0 -0.00655449)
(-0.204362 4.45726e-19 0.0417069)
(-0.197181 0 0.0355304)
(0.0188812 0 -0.00163297)
(-0.472571 -3.87828e-19 0.090632)
(0.163282 4.22612e-19 -0.0326656)
(-0.412752 1.33992e-18 0.08326)
(-0.217144 -7.52529e-19 0.0370084)
(0.0921056 0 -0.0141198)
(-0.741197 0 0.142587)
(0.271086 0 -0.0552476)
(-0.413612 5.15245e-19 0.0866034)
(-0.581813 -5.74442e-19 0.105533)
(0.453749 0 -0.0863264)
(-0.927821 1.68335e-18 0.184785)
(-0.348655 1.07539e-18 0.055461)
(0.637875 1.93945e-18 -0.116647)
(-1.46486 0 0.289361)
(-0.349667 0 0.0524021)
(0.680912 -8.54109e-19 -0.127516)
(-1.09777 0 0.216899)
(-0.161855 -7.75677e-19 0.0250549)
(-0.185075 -6.81224e-19 0.0369802)
(-0.374212 0 0.0728116)
(31.892 0 3.89733)
(31.0781 0 2.8189)
(28.5488 -1.29882e-20 1.02316)
(25.2064 0 -0.383636)
(21.9553 0 -1.22747)
(19.1833 1.51368e-20 -1.65213)
(16.926 1.33481e-20 -1.82033)
(15.1018 0 -1.85187)
(13.6149 4.20732e-22 -1.81813)
(12.3852 2.07605e-20 -1.75561)
(11.3522 -3.79141e-20 -1.68181)
(10.4718 -1.7501e-20 -1.60509)
(9.71163 1.14587e-22 -1.52943)
(9.04793 -1.47434e-20 -1.45668)
(8.46278 -1.35262e-20 -1.38763)
(7.94245 1.23543e-20 -1.32254)
(7.47627 -2.27364e-20 -1.26139)
(7.05584 -2.08231e-20 -1.20402)
(6.67441 0 -1.15021)
(6.32654 0 -1.09973)
(6.00776 1.58785e-20 -1.05232)
(5.71438 1.44827e-20 -1.00774)
(5.44332 0 -0.965769)
(5.192 0 -0.926199)
(4.95822 2.17668e-20 -0.888839)
(4.74011 0 -0.853513)
(4.53605 -3.55594e-20 -0.820064)
(4.34465 1.60036e-20 -0.788346)
(4.1647 0 -0.758228)
(3.99514 1.28328e-20 -0.729592)
(3.83504 1.14191e-20 -0.702329)
(3.68358 0 -0.67634)
(3.54003 -8.90295e-21 -0.651536)
(3.40374 -1.55521e-20 -0.627834)
(3.27414 1.20485e-23 -0.605159)
(3.15071 0 -0.583443)
(3.03297 0 -0.562623)
(2.9205 8.15182e-21 -0.54264)
(2.81293 0 -0.52344)
(2.70991 0 -0.504975)
(2.61111 0 -0.487198)
(2.51625 0 -0.470066)
(2.42506 0 -0.453542)
(2.3373 0 -0.437587)
(2.25275 0 -0.422168)
(2.17119 1.99503e-21 -0.407252)
(2.09243 -3.50713e-21 -0.392811)
(2.0163 0 -0.378815)
(1.94263 -6.14919e-21 -0.36524)
(1.87126 0 -0.352059)
(1.80206 0 -0.33925)
(1.73488 1.84047e-20 -0.32679)
(1.6696 0 -0.31466)
(1.6061 -2.15391e-20 -0.302839)
(1.54427 2.28131e-20 -0.291309)
(1.484 0 -0.280053)
(1.4252 2.49774e-20 -0.269053)
(1.36777 0 -0.258294)
(1.31162 0 -0.247761)
(1.25667 0 -0.23744)
(1.20285 5.54034e-20 -0.227316)
(1.15007 5.62348e-20 -0.217381)
(1.09827 2.83584e-23 -0.207615)
(1.04739 -1.14727e-19 -0.198017)
(0.997348 2.48777e-23 -0.188564)
(0.948119 0 -0.179262)
(0.899617 0 -0.170083)
(0.851837 -1.15483e-19 -0.161041)
(0.80468 3.80705e-23 -0.152101)
(0.758182 0 -0.143292)
(0.712218 0 -0.134565)
(0.66688 -1.12487e-19 -0.125969)
(0.622006 2.88585e-23 -0.117438)
(0.577757 2.68612e-23 -0.109043)
(0.533928 0 -0.100702)
(0.490758 0 -0.0925103)
(0.448 -2.09729e-19 -0.0843647)
(0.405961 2.05973e-19 -0.0763892)
(0.364398 0 -0.0684643)
(0.323581 0 -0.0607261)
(0.283516 0 -0.0530798)
(0.243947 0 -0.0455876)
(0.206016 0 -0.0383418)
(0.167479 0 -0.0310516)
(0.132617 0 -0.024404)
(0.0954035 0 -0.017321)
(0.061983 -6.59238e-19 -0.0110874)
(0.0341489 -3.1977e-19 -0.00550145)
(-0.0162219 -3.08789e-19 0.00354908)
(-0.00200348 3.00326e-19 0.00129054)
(-0.0988484 -5.73761e-19 0.0198736)
(-0.0515535 -2.80559e-19 0.00960873)
(-0.117412 -2.66929e-19 0.0247084)
(-0.18142 0 0.0327806)
(-0.0206442 0 0.00694302)
(-0.411924 0 0.0789309)
(0.0543325 0 -0.0135073)
(-0.345695 -4.18164e-19 0.0733485)
(-0.299776 0 0.0501797)
(0.0121294 0 0.00448167)
(-0.761925 3.63638e-19 0.143943)
(0.265012 0 -0.0540217)
(-0.702105 -6.2797e-19 0.145816)
(-0.313041 7.05207e-19 0.0454309)
(0.103595 0 -0.00738437)
(-1.19564 0 0.22715)
(0.445752 0 -0.0944269)
(-0.732401 4.82786e-19 0.161807)
(-0.877498 0 0.147097)
(0.679448 -5.43206e-19 -0.123804)
(-1.54608 -6.00624e-23 0.315204)
(-0.470086 -1.00646e-18 0.0537217)
(0.922802 -1.81609e-18 -0.153667)
(-2.40786 0 0.48333)
(-0.421683 9.09072e-19 0.0331992)
(1.02027 7.98915e-19 -0.180221)
(-1.83749 6.39036e-19 0.369805)
(-0.194586 0 0.0172483)
(-0.322855 6.36968e-19 0.0667164)
(-0.590278 0 0.115465)
(32.4138 0 2.95492)
(32.98 0 2.76839)
(32.4268 1.22781e-20 1.72332)
(30.7837 0 0.521422)
(28.5304 -1.23199e-20 -0.484288)
(26.1139 2.50585e-20 -1.20763)
(23.7942 0 -1.67095)
(21.6876 -2.18736e-20 -1.93525)
(19.8275 2.09724e-20 -2.06452)
(18.2043 1.89668e-20 -2.10885)
(16.7907 1.78262e-20 -2.10206)
(15.5555 -1.62032e-20 -2.06544)
(14.4701 1.50846e-20 -2.01196)
(13.5101 -2.7502e-20 -1.94943)
(12.6557 0 -1.88259)
(11.8905 -2.33058e-20 -1.81432)
(11.2011 0 -1.74635)
(10.5767 0 -1.67974)
(10.0083 0 -1.6151)
(9.48864 1.63987e-20 -1.55278)
(9.01145 -3.42389e-23 -1.49292)
(8.5716 -2.60514e-23 -1.4356)
(8.16474 1.24549e-20 -1.38079)
(7.78716 0 -1.32842)
(7.4357 0 -1.27842)
(7.10764 0 -1.23067)
(6.80062 3.36164e-20 -1.18507)
(6.51261 -6.04262e-24 -1.14151)
(6.24181 0 -1.09987)
(5.98666 0 -1.06005)
(5.74577 0 -1.02194)
(5.51793 0 -0.985446)
(5.30204 1.68402e-20 -0.950469)
(5.09714 0 -0.916923)
(4.90235 -1.27535e-20 -0.884723)
(4.7169 0 -0.853792)
(4.54009 0 -0.824057)
(4.37127 -7.72946e-21 -0.795446)
(4.20988 0 -0.767897)
(4.05538 0 -0.741348)
(3.90729 3.77888e-21 -0.715743)
(3.76518 -5.33288e-21 -0.691028)
(3.62866 0 -0.667152)
(3.49733 -1.41667e-21 -0.644069)
(3.37088 0 -0.621734)
(3.24897 -3.75007e-21 -0.600105)
(3.13133 1.87886e-23 -0.579143)
(3.01768 0 -0.55881)
(2.90777 0 -0.539072)
(2.80136 6.84386e-21 -0.519893)
(2.69824 1.5616e-20 -0.501245)
(2.5982 -3.47283e-20 -0.483095)
(2.50105 0 -0.465416)
(2.40661 -2.02846e-20 -0.44818)
(2.31471 -2.15347e-20 -0.431363)
(2.22518 -2.25888e-20 -0.414939)
(2.1379 -2.35308e-20 -0.398885)
(2.05269 0 -0.38318)
(1.96944 0 -0.3678)
(1.88802 -5.12586e-20 -0.352728)
(1.80831 -1.04489e-19 -0.337943)
(1.7302 -5.3039e-20 -0.32343)
(1.65358 3.04324e-23 -0.309164)
(1.57835 5.40766e-20 -0.295142)
(1.50442 5.43606e-20 -0.281333)
(1.43171 0 -0.267742)
(1.36012 0 -0.25433)
(1.28961 1.08829e-19 -0.241119)
(1.22006 2.16735e-19 -0.228056)
(1.1515 0 -0.215184)
(1.08376 1.06876e-19 -0.202432)
(1.01694 1.05877e-19 -0.189868)
(0.95084 1.04732e-19 -0.1774)
(0.885645 2.06817e-19 -0.165129)
(0.821102 0 -0.152935)
(0.757497 0 -0.140957)
(0.694529 1.9736e-19 -0.129044)
(0.632571 -3.87541e-19 -0.117377)
(0.57134 -1.8993e-19 -0.105778)
(0.51115 0 -0.0944527)
(0.452067 0 -0.0832477)
(0.393683 0 -0.0722812)
(0.337628 0 -0.0616363)
(0.280755 0 -0.0509708)
(0.229065 0 -0.0411763)
(0.174019 -3.19074e-19 -0.0307699)
(0.124755 4.30623e-23 -0.0217134)
(0.0820821 3.00256e-19 -0.013062)
(0.0108143 0 -0.000758352)
(0.0250681 2.81912e-19 -0.00236411)
(-0.110546 2.69274e-19 0.0233072)
(-0.0461076 0 0.00882359)
(-0.146501 -2.50443e-19 0.032777)
(-0.225626 -4.83885e-19 0.0396423)
(-0.0241299 0 0.0112252)
(-0.54812 0 0.104827)
(0.0871745 0 -0.0218493)
(-0.486539 -3.92063e-19 0.107111)
(-0.378493 0 0.0587409)
(-0.00836563 0 0.0155578)
(-1.02668 3.40544e-19 0.191795)
(0.357859 -3.71236e-19 -0.073975)
(-0.995167 0 0.212086)
(-0.373224 0 0.0437874)
(0.0782822 0 0.0101808)
(-1.61161 0 0.303185)
(0.606563 0 -0.132902)
(-1.07339 1.06911e-22 0.246603)
(-1.10361 0 0.170717)
(0.840401 5.08314e-19 -0.14674)
(-2.14789 -7.37074e-19 0.446548)
(-0.516857 0 0.0296242)
(1.10071 -6.4652e-22 -0.16377)
(-3.30395 0 0.672607)
(-0.382966 -6.32047e-22 -0.0181858)
(1.2685 0 -0.210275)
(-2.56039 -5.97476e-19 0.523279)
(-0.169015 0 -0.00700838)
(-0.469477 5.95471e-19 0.100164)
(-0.768418 0 0.152)
(32.5164 0 2.1024)
(33.2742 0 2.22769)
(33.6211 0 1.75215)
(33.2568 0 0.957598)
(32.2341 1.16291e-20 0.115282)
(30.7601 -9.01372e-22 -0.634303)
(29.0405 0 -1.23573)
(27.2339 2.06457e-20 -1.67984)
(25.4502 0 -1.98379)
(23.7555 -3.53041e-20 -2.17585)
(22.182 0 -2.28462)
(20.7401 1.5297e-20 -2.33411)
(19.427 0 -2.34263)
(18.2342 2.59663e-20 -2.32343)
(17.1504 -1.18287e-20 -2.28583)
(16.1641 2.18594e-20 -2.23627)
(15.2644 -2.0014e-20 -2.17921)
(14.4412 -1.83734e-20 -2.1177)
(13.686 0 -2.05385)
(12.9909 -1.54849e-20 -1.98912)
(12.3492 -1.41496e-20 -1.9245)
(11.7552 -2.57851e-20 -1.86068)
(11.2038 -1.17607e-20 -1.7981)
(10.6906 0 -1.73707)
(10.2118 0 -1.67778)
(9.76388 0 -1.62033)
(9.34405 -1.58658e-20 -1.56477)
(8.94968 -1.42848e-20 -1.51111)
(8.57848 0 -1.45933)
(8.22843 0 -1.40941)
(7.89772 1.0197e-20 -1.36128)
(7.58476 0 -1.3149)
(7.2881 1.33473e-24 -1.27019)
(7.00646 -1.39048e-20 -1.22709)
(6.73869 1.20551e-20 -1.18554)
(6.48373 0 -1.14546)
(6.24064 0 -1.10679)
(6.00856 7.29523e-21 -1.06946)
(5.78671 0 -1.03341)
(5.57439 0 -0.998574)
(5.37093 -3.56598e-21 -0.964897)
(5.17573 5.03213e-21 -0.932319)
(4.98826 0 -0.900787)
(4.808 1.33661e-21 -0.870247)
(4.63449 0 -0.84065)
(4.46729 1.75956e-21 -0.811945)
(4.30601 3.10752e-21 -0.784091)
(4.15027 0 -0.75704)
(3.99974 5.43062e-21 -0.730752)
(3.85406 -6.45414e-21 -0.705186)
(3.71297 -2.94213e-20 -0.680305)
(3.57616 1.63588e-20 -0.65607)
(3.44338 -1.77939e-20 -0.632449)
(3.31436 2.53045e-23 -0.609405)
(3.18889 0 -0.58691)
(3.06673 2.12908e-20 -0.564929)
(2.9477 2.21765e-20 -0.543435)
(2.83156 -2.29221e-20 -0.522399)
(2.71816 2.35772e-20 -0.501794)
(2.60731 4.8293e-20 -0.481596)
(2.49885 4.91999e-20 -0.461777)
(2.39262 -4.98969e-20 -0.442319)
(2.28848 5.04894e-20 -0.42319)
(2.18628 0 -0.404385)
(2.08589 0 -0.385862)
(1.98721 5.12682e-20 -0.36763)
(1.89009 0 -0.349637)
(1.79448 0 -0.331912)
(1.70021 -1.01966e-19 -0.314383)
(1.6073 0 -0.297109)
(1.51555 -1.00554e-19 -0.279994)
(1.42504 -1.99169e-19 -0.26313)
(1.33555 0 -0.246392)
(1.24727 -9.72365e-20 -0.229916)
(1.15991 0 -0.213539)
(1.07379 0 -0.19745)
(0.988553 -1.85434e-19 -0.181442)
(0.904627 1.82102e-19 -0.165762)
(0.82171 3.94329e-23 -0.150165)
(0.740128 0 -0.134937)
(0.660037 0 -0.119847)
(0.580852 0 -0.105099)
(0.504703 -1.62666e-19 -0.090726)
(0.427544 1.58458e-19 -0.076389)
(0.357092 0 -0.063123)
(0.282251 5.98991e-19 -0.0490785)
(0.215419 2.90548e-19 -0.0369747)
(0.155539 -5.63491e-19 -0.0247249)
(0.062665 -2.71947e-19 -0.00936897)
(0.0732588 -5.28904e-19 -0.00925182)
(-0.100887 0 0.0230655)
(-0.0215426 0 0.00446655)
(-0.160516 2.34831e-19 0.0389859)
(-0.249525 4.5365e-19 0.0419936)
(-0.021201 -4.42153e-19 0.0159292)
(-0.662507 0 0.125646)
(0.126273 0 -0.0315028)
(-0.622022 3.67339e-19 0.141982)
(-0.431925 3.75476e-19 0.0600141)
(-0.0406361 0 0.0320544)
(-1.2616 -3.18928e-19 0.23182)
(0.439007 3.47622e-19 -0.091562)
(-1.28445 0 0.280296)
(-0.400314 0 0.0309523)
(0.0193373 0 0.0399425)
(-1.98135 0 0.367085)
(0.745412 0 -0.168653)
(-1.42587 -4.22915e-19 0.339526)
(-1.26271 0 0.173146)
(0.934895 0 -0.150821)
(-2.71835 0 0.574975)
(-0.502165 8.78953e-19 -0.0181544)
(1.1778 7.95105e-19 -0.141714)
(-4.13358 0 0.850967)
(-0.252881 -7.94209e-19 -0.103901)
(1.42808 0 -0.211889)
(-3.24444 -5.58358e-19 0.672137)
(-0.0889694 0 -0.0499335)
(-0.621241 -5.56489e-19 0.137228)
(-0.895742 0 0.178641)
(32.5884 -4.99042e-21 1.48831)
(33.1718 -6.19314e-21 1.62777)
(33.6985 7.35276e-21 1.43652)
(33.9241 8.2852e-21 0.975226)
(33.7316 0 0.382958)
(33.133 -9.93004e-21 -0.23328)
(32.2015 0 -0.807672)
(31.0282 1.74485e-20 -1.30319)
(29.7017 1.66842e-20 -1.70442)
(28.2984 3.2182e-20 -2.01179)
(26.8777 -1.48086e-20 -2.235)
(25.4817 1.38199e-20 -2.38756)
(24.1378 0 -2.48339)
(22.8614 0 -2.53513)
(21.6598 1.11519e-20 -2.55341)
(20.5348 -1.14599e-22 -2.54676)
(19.4849 1.76134e-22 -2.52183)
(18.5064 1.35962e-22 -2.4837)
(17.595 0 -2.43622)
(16.7456 0 -2.38225)
(15.9534 0 -2.32396)
(15.2137 2.42285e-20 -2.26296)
(14.5221 1.10243e-20 -2.20044)
(13.8745 0 -2.1373)
(13.2671 0 -2.0742)
(12.6965 1.65088e-20 -2.01161)
(12.1597 0 -1.9499)
(11.6539 0 -1.8893)
(11.1765 0 -1.83002)
(10.7253 0 -1.77214)
(10.2983 -6.4453e-24 -1.71577)
(9.89342 0 -1.66093)
(9.50916 -1.65334e-24 -1.60764)
(9.14393 1.31074e-20 -1.55591)
(8.79634 2.54666e-24 -1.50571)
(8.46513 0 -1.45702)
(8.14914 0 -1.4098)
(7.84732 0 -1.36401)
(7.55868 0 -1.31961)
(7.28236 0 -1.27656)
(7.01752 0 -1.2348)
(6.76341 0 -1.19428)
(6.51935 -2.9616e-21 -1.15495)
(6.28469 -1.2955e-21 -1.11677)
(6.05883 0 -1.07969)
(5.84122 1.62327e-21 -1.04366)
(5.63136 0 -1.00863)
(5.42875 0 -0.974561)
(5.23297 -1.02147e-20 -0.941402)
(5.04357 0 -0.90911)
(4.86019 1.38399e-20 -0.877647)
(4.68244 0 -0.846968)
(4.51 3.34839e-20 -0.817037)
(4.34251 2.45189e-23 -0.787813)
(4.17971 0 -0.759262)
(4.02127 0 -0.731346)
(3.86695 0 -0.704031)
(3.71646 4.31288e-20 -0.677284)
(3.5696 -4.43588e-20 -0.651072)
(3.4261 -4.53759e-20 -0.625367)
(3.28577 -4.62287e-20 -0.600134)
(3.14839 9.38579e-20 -0.575354)
(3.01377 4.74398e-20 -0.550986)
(2.88173 0 -0.527023)
(2.75209 0 -0.503415)
(2.6247 -2.42756e-23 -0.480174)
(2.4994 0 -0.457231)
(2.37607 0 -0.434627)
(2.25454 -9.57806e-20 -0.41227)
(2.13477 0 -0.390234)
(2.01655 0 -0.368395)
(1.89994 1.87107e-19 -0.346876)
(1.78468 -9.24767e-20 -0.32551)
(1.67097 0 -0.304476)
(1.55847 0 -0.283561)
(1.44752 0 -0.26301)
(1.33775 1.74151e-19 -0.242554)
(1.2296 0 -0.222513)
(1.12276 3.35047e-19 -0.202563)
(1.01756 -1.64002e-19 -0.183087)
(0.914252 0 -0.163759)
(0.812059 0 -0.144889)
(0.713626 1.52643e-19 -0.12643)
(0.614007 -2.64121e-23 -0.108092)
(0.522627 1.4456e-19 -0.0909977)
(0.425807 -2.80903e-19 -0.072974)
(0.339439 2.72413e-19 -0.0575436)
(0.259763 2.64184e-19 -0.0411683)
(0.144356 2.54976e-19 -0.0228651)
(0.147218 2.47567e-23 -0.0199874)
(-0.0650718 0 0.0184605)
(0.0261006 -2.31326e-19 -0.00359455)
(-0.155127 0 0.042658)
(-0.249348 0 0.0394749)
(-0.00842785 4.14214e-19 0.0206221)
(-0.750363 0 0.140737)
(0.172333 0 -0.0422859)
(-0.746411 0 0.176841)
(-0.458894 -3.51564e-19 0.0540733)
(-0.0816031 0 0.0536061)
(-1.46104 -2.9833e-19 0.263375)
(0.506396 0 -0.10598)
(-1.56167 0 0.348589)
(-0.398185 0 0.00813509)
(-0.0683699 0 0.080994)
(-2.29737 0 0.418005)
(0.855144 -5.28516e-19 -0.199728)
(-1.77853 -3.95689e-19 0.437858)
(-1.35986 4.38981e-19 0.156546)
(0.964585 0 -0.136851)
(-3.24297 0 0.696555)
(-0.443412 -1.64292e-18 -0.0846512)
(1.16496 0 -0.0905848)
(-4.87755 5.26206e-19 1.01305)
(-0.059005 0 -0.216653)
(1.50609 6.54155e-19 -0.186937)
(-3.86643 5.21776e-19 0.81071)
(0.0373151 0 -0.109336)
(-0.773003 -5.20009e-19 0.177177)
(-0.957662 0 0.192437)
(32.6428 4.69962e-21 1.03631)
(33.0539 1.14174e-20 1.12318)
(33.5 -6.92591e-21 1.03995)
(33.8651 -7.82371e-22 0.77634)
(34.0385 7.50262e-21 0.385794)
(33.964 0 -0.0697415)
(33.6338 0 -0.541151)
(33.0681 -1.64303e-20 -0.9927)
(32.3022 -3.05175e-20 -1.40076)
(31.3785 -7.09053e-22 -1.75229)
(30.3407 1.3943e-20 -2.04279)
(29.2293 -1.30121e-20 -2.27362)
(28.0792 1.17678e-20 -2.4496)
(26.9187 0 -2.57732)
(25.7694 0 -2.66397)
(24.6468 -9.55658e-21 -2.71654)
(23.5613 3.49711e-20 -2.74143)
(22.5194 3.21864e-20 -2.74422)
(21.5246 0 -2.72961)
(20.5783 0 -2.70149)
(19.6801 0 -2.66303)
(18.8291 -6.73508e-23 -2.61677)
(18.0234 -2.07088e-20 -2.56474)
(17.2608 9.40621e-21 -2.50854)
(16.5392 1.70945e-20 -2.44946)
(15.8559 -3.10397e-20 -2.38848)
(15.2088 1.40066e-20 -2.3264)
(14.5955 1.26226e-20 -2.26383)
(14.0138 1.13364e-20 -2.20125)
(13.4615 0 -2.13903)
(12.9368 -9.04488e-21 -2.07745)
(12.4379 8.00426e-21 -2.01673)
(11.9629 -7.05591e-21 -1.95703)
(11.5103 -1.23337e-20 -1.89846)
(11.0787 -2.13974e-20 -1.84112)
(10.6667 0 -1.78505)
(10.273 0 -1.73029)
(9.8964 -6.49146e-21 -1.67685)
(9.53585 0 -1.62474)
(9.19033 4.1993e-21 -1.57395)
(8.85891 3.187e-21 -1.52446)
(8.5407 0 -1.47625)
(8.23489 5.58964e-21 -1.42929)
(7.94073 1.21914e-21 -1.38355)
(7.65751 0 -1.33899)
(7.38457 -1.52744e-21 -1.29557)
(7.12129 -2.70783e-21 -1.25326)
(6.86709 0 -1.21201)
(6.62145 9.58093e-21 -1.17178)
(6.38383 -5.6767e-21 -1.13254)
(6.15378 -1.29651e-20 -1.09424)
(5.93082 0 -1.05684)
(5.71456 -2.47877e-23 -1.0203)
(5.50457 3.37512e-20 -0.984588)
(5.3005 0 -0.949656)
(5.10195 0 -0.915467)
(4.90864 -1.95685e-20 -0.881986)
(4.72019 -2.02652e-20 -0.849175)
(4.53634 4.16662e-20 -0.816997)
(4.35677 4.26544e-20 -0.785423)
(4.18124 4.34523e-20 -0.75441)
(4.00945 -4.40919e-20 -0.723939)
(3.84121 -8.91363e-20 -0.693959)
(3.67622 0 -0.664468)
(3.51433 0 -0.635401)
(3.35528 -9.05247e-20 -0.606778)
(3.19891 0 -0.578512)
(3.04504 0 -0.550657)
(2.89347 8.99586e-20 -0.523096)
(2.74412 0 -0.495927)
(2.59676 -8.86465e-20 -0.468991)
(2.45141 -3.23605e-23 -0.442444)
(2.3078 8.68181e-20 -0.416075)
(2.16608 0 -0.390114)
(2.02592 0 -0.364285)
(1.88763 0 -0.338902)
(1.75084 1.63332e-19 -0.31362)
(1.61597 0 -0.288848)
(1.48276 -1.57145e-19 -0.264167)
(1.35147 3.07647e-19 -0.240073)
(1.22251 0 -0.216123)
(1.09487 0 -0.192768)
(0.971727 0 -0.169833)
(0.84723 -2.61392e-23 -0.147139)
(0.732509 -1.35521e-19 -0.125824)
(0.611275 -2.63221e-19 -0.103453)
(0.50314 -2.55317e-19 -0.0843822)
(0.400842 2.47506e-19 -0.0633202)
(0.26169 0 -0.0421749)
(0.252418 2.32235e-19 -0.0354551)
(0.00243796 0 0.00867002)
(0.101431 2.16675e-19 -0.0161052)
(-0.12523 0 0.0429175)
(-0.220785 0 0.0313571)
(0.0184734 0 0.0247303)
(-0.806535 -3.54907e-19 0.149281)
(0.226843 -3.6815e-19 -0.0541303)
(-0.853185 0 0.210377)
(-0.458647 3.28832e-19 0.0408361)
(-0.126899 -3.11513e-19 0.079649)
(-1.61962 2.79141e-19 0.285042)
(0.559253 -3.04513e-19 -0.116632)
(-1.81793 0 0.414922)
(-0.372231 0 -0.0236043)
(-0.178063 0 0.132432)
(-2.55383 0 0.454019)
(0.930667 4.9421e-19 -0.224478)
(-2.11968 -3.33184e-23 0.538704)
(-1.40417 -8.20484e-19 0.122302)
(0.935925 0 -0.104545)
(-3.70803 0 0.807557)
(-0.362289 7.6752e-19 -0.165515)
(1.07861 0 -0.0119396)
(-5.51752 -4.9174e-19 1.15356)
(0.162803 0 -0.349851)
(1.51535 -1.22287e-18 -0.135821)
(-4.40234 0 0.933158)
(0.19652 0 -0.183034)
(-0.918225 4.85769e-19 0.218751)
(-0.938835 0 0.189659)
(32.6672 0 0.68319)
(32.9686 -5.25348e-21 0.726279)
(33.3055 0 0.676531)
(33.636 -6.6063e-21 0.513198)
(33.8968 -1.34677e-20 0.251129)
(34.0372 0 -0.0779459)
(34.0285 6.71843e-21 -0.442608)
(33.8596 0 -0.81676)
(33.5309 9.01085e-22 -1.18021)
(33.0519 -2.58738e-20 -1.51847)
(32.4387 0 -1.82223)
(31.7115 0 -2.0866)
(30.8926 -1.10683e-20 -2.30998)
(30.0044 0 -2.49311)
(29.0678 0 -2.63827)
(28.1018 0 -2.74874)
(27.1227 -1.63364e-20 -2.82829)
(26.1437 -1.50512e-20 -2.88089)
(25.1754 -1.36579e-20 -2.91041)
(24.2258 0 -2.92048)
(23.3008 0 -2.9144)
(22.4043 -1.06435e-20 -2.89508)
(21.539 9.71384e-21 -2.86501)
(20.7062 -8.8468e-21 -2.82635)
(19.9065 -1.60777e-20 -2.78091)
(19.1398 2.9077e-20 -2.73019)
(18.4057 -5.43332e-23 -2.67545)
(17.7032 -1.18715e-20 -2.61772)
(17.0314 -1.06617e-20 -2.55786)
(16.389 0 -2.49654)
(15.7747 0 -2.43435)
(15.1872 -7.52746e-21 -2.37174)
(14.6252 0 -2.30908)
(14.0874 1.15985e-20 -2.24667)
(13.5726 1.00595e-20 -2.18474)
(13.0794 -8.63041e-21 -2.12349)
(12.6068 0 -2.06305)
(12.1536 6.10377e-21 -2.00355)
(11.7187 4.9843e-21 -1.94506)
(11.301 3.63888e-24 -1.88764)
(10.8997 -5.9974e-21 -1.83134)
(10.5138 0 -1.77618)
(10.1425 -2.63457e-21 -1.72218)
(9.78489 0 -1.66933)
(9.44025 0 -1.61763)
(9.10783 0 -1.56708)
(8.78697 1.36941e-23 -1.51764)
(8.47698 0 -1.4693)
(8.17729 -4.49538e-21 -1.42203)
(7.88728 1.06565e-20 -1.37579)
(7.60643 1.21835e-20 -1.33057)
(7.33418 0 -1.28632)
(7.07008 -1.47608e-20 -1.24301)
(6.81361 -3.16657e-20 -1.2006)
(6.56438 0 -1.15906)
(6.32191 0 -1.11835)
(6.08585 1.83817e-20 -1.07843)
(5.85575 1.8998e-20 -1.03926)
(5.63133 -1.95582e-20 -1.00081)
(5.41216 -3.99927e-20 -0.963049)
(5.19798 0 -0.925927)
(4.98841 0 -0.889427)
(4.78322 2.83986e-23 -0.85349)
(4.58206 -4.21372e-20 -0.818118)
(4.38472 0 -0.783233)
(4.19091 4.24759e-20 -0.748866)
(4.00041 0 -0.714909)
(3.81299 0 -0.681434)
(3.62844 0 -0.648294)
(3.44661 0 -0.615617)
(3.26724 3.43216e-23 -0.583202)
(3.09033 -3.20648e-23 -0.551248)
(2.91556 -8.13838e-20 -0.519491)
(2.74307 0 -0.488217)
(2.5725 -7.91641e-20 -0.457082)
(2.40415 0 -0.426481)
(2.23763 -1.53156e-19 -0.395975)
(2.07336 1.50278e-19 -0.366082)
(1.91108 -1.47249e-19 -0.336264)
(1.75103 -1.44179e-19 -0.307161)
(1.59374 0 -0.278178)
(1.43797 1.37531e-19 -0.249945)
(1.28743 0 -0.222113)
(1.13538 -1.30566e-19 -0.194678)
(0.994644 -1.26925e-19 -0.168713)
(0.846292 2.46587e-19 -0.141599)
(0.713875 0 -0.118526)
(0.585865 -4.63594e-19 -0.0922021)
(0.42144 0 -0.0682427)
(0.395331 2.17418e-19 -0.0565666)
(0.10805 0 -0.00718911)
(0.209972 2.02802e-19 -0.0338753)
(-0.0648291 0 0.0388706)
(-0.158775 3.72292e-19 0.0169121)
(0.0647207 -3.63023e-19 0.0275341)
(-0.825391 3.32122e-19 0.150221)
(0.292369 3.44479e-19 -0.067116)
(-0.935065 0 0.241108)
(-0.430578 -6.15158e-19 0.0204059)
(-0.170861 5.82853e-19 0.109308)
(-1.73217 0 0.29594)
(0.598546 2.84793e-19 -0.123177)
(-2.04387 0 0.477141)
(-0.328739 0 -0.0628246)
(-0.301456 -4.57505e-19 0.192783)
(-2.74665 0 0.47449)
(0.969941 0 -0.24179)
(-2.43739 3.45852e-19 0.639067)
(-1.40814 7.66218e-19 0.0731085)
(0.859182 3.89567e-19 -0.0554736)
(-4.10091 0 0.904675)
(-0.281759 0 -0.255594)
(0.938475 0 0.0904281)
(-6.03626 0 1.26797)
(0.373832 6.45622e-19 -0.495376)
(1.47211 5.71393e-19 -0.0615786)
(-4.82771 0 1.03371)
(0.372154 0 -0.26758)
(-1.04917 0 0.260031)
(-0.824072 0 0.165918)
(32.666 4.20473e-21 0.394878)
(32.8981 0 0.410658)
(33.1538 4.92211e-21 0.36981)
(33.4186 0 0.256308)
(33.6615 6.02373e-21 0.0707031)
(33.851 0 -0.172299)
(33.9643 -6.31447e-21 -0.45356)
(33.9864 1.158e-20 -0.755141)
(33.908 2.36418e-20 -1.06188)
(33.7244 7.28762e-22 -1.36179)
(33.4353 0 -1.64586)
(33.044 0 -1.90789)
(32.5572 0 -2.14401)
(31.9839 0 -2.35215)
(31.3353 0 -2.53156)
(30.6233 0 -2.68251)
(29.8603 1.4721e-20 -2.80601)
(29.0587 -1.36419e-20 -2.90366)
(28.2301 1.28331e-20 -2.97744)
(27.3847 0 -3.02957)
(26.532 0 -3.06237)
(25.6797 9.80019e-21 -3.07817)
(24.8342 8.96776e-21 -3.07922)
(24.0007 8.18581e-21 -3.06763)
(23.1833 0 -3.04532)
(22.3849 -1.36272e-20 -3.01403)
(21.6078 -2.45777e-20 -2.97531)
(20.8534 1.10554e-20 -2.93049)
(20.1226 0 -2.88076)
(19.416 0 -2.82711)
(18.7335 0 -2.7704)
(18.075 7.03726e-21 -2.71137)
(17.4402 0 -2.65063)
(16.8285 0 -2.58871)
(16.2393 9.42415e-21 -2.52603)
(15.6718 8.10746e-21 -2.46297)
(15.1253 0 -2.39982)
(14.5989 5.72954e-21 -2.33682)
(14.0918 -9.3621e-21 -2.27419)
(13.6032 -3.71198e-21 -2.21209)
(13.1323 2.8188e-21 -2.15064)
(12.6783 0 -2.08996)
(12.2403 0 -2.03013)
(11.8176 0 -1.9712)
(11.4095 -1.53616e-22 -1.91322)
(11.0152 0 -1.85623)
(10.6341 2.37715e-21 -1.80023)
(10.2654 3.32519e-21 -1.74525)
(9.90852 0 -1.69128)
(9.56287 -4.99664e-21 -1.63832)
(9.22786 0 -1.58634)
(8.9029 0 -1.53534)
(8.58748 -1.38124e-20 -1.4853)
(8.28102 2.16029e-23 -1.43618)
(7.9831 1.57314e-20 -1.38796)
(7.69317 0 -1.34062)
(7.41085 0 -1.29411)
(7.13561 -1.78294e-20 -1.24841)
(6.86714 0 -1.20349)
(6.60493 3.75279e-20 -1.1593)
(6.34871 0 -1.11582)
(6.09799 0 -1.07302)
(5.85255 7.84113e-20 -1.03083)
(5.61194 7.90322e-20 -0.989276)
(5.37593 3.97003e-20 -0.948255)
(5.14416 0 -0.907816)
(4.91639 0 -0.867828)
(4.69232 3.97024e-20 -0.828386)
(4.47171 7.90546e-20 -0.78931)
(4.25436 0 -0.750762)
(4.03999 7.79506e-20 -0.712495)
(3.82854 -7.71862e-20 -0.674762)
(3.61966 7.62919e-20 -0.637228)
(3.41347 -7.52746e-20 -0.600258)
(3.20957 7.41982e-20 -0.563418)
(3.00825 0 -0.527204)
(2.8091 0 -0.491062)