/*--------------------------------*- C++ -*----------------------------------*\
| =========                 |                                                 |
| \\      /  F ield         | OpenFOAM: The Open Source CFD Toolbox           |
|  \\    /   O peration     | Version:  2412                                  |
|   \\  /    A nd           | Website:  www.openfoam.com                      |
|    \\/     M anipulation  |                                                 |
\*---------------------------------------------------------------------------*/
FoamFile
{
    version     2.0;
    format      ascii;
    arch        "LSB;label=32;scalar=64";
    class       surfaceScalarField;
    location    "1.775";
    object      phi;
}
// * * * * * * * * * * * * * * * * * * * * * * * * * * * * * * * * * * * * * //

dimensions      [0 3 -1 0 0 0 0];

oriented        oriented;

internalField   nonuniform List<scalar> 
24930
(
0.0179592
0.012758
-0.0307177
0.0105966
0.00736261
0.0069475
0.00364907
0.00517234
0.00177514
0.00420076
0.000971568
0.00357813
0.000622609
0.0031324
0.000445716
0.00279304
0.00033935
0.00252397
0.000269055
0.00230414
0.000219814
0.00212041
0.000183722
0.00196404
0.000156358
0.00182899
0.000135041
0.00171092
0.000118068
0.00160661
0.000104305
0.00151364
9.29675e-05
0.00143013
8.35024e-05
0.00135462
7.5507e-05
0.00128594
6.86832e-05
0.00122314
6.28058e-05
0.00116544
5.77021e-05
0.00111221
5.32377e-05
0.00106291
4.93069e-05
0.00101709
4.58252e-05
0.000974377
4.27246e-05
0.000934436
3.99498e-05
0.00089699
3.74553e-05
0.000861796
3.52038e-05
0.000828642
3.31638e-05
0.000797342
3.13093e-05
0.000767732
2.9618e-05
0.000739669
2.80713e-05
0.000713024
2.66528e-05
0.000687681
2.53492e-05
0.000663538
2.41481e-05
0.000640503
2.30396e-05
0.000618492
2.20143e-05
0.000597428
2.10652e-05
0.000577245
2.01843e-05
0.000557877
1.93671e-05
0.000539269
1.86066e-05
0.000521367
1.79005e-05
0.000504122
1.72419e-05
0.000487488
1.66306e-05
0.000471425
1.60589e-05
0.000455891
1.55297e-05
0.000440854
1.50332e-05
0.000426274
1.4576e-05
0.000412125
1.4145e-05
0.000398369
1.37519e-05
0.000384987
1.33786e-05
0.00037194
1.30435e-05
0.000359215
1.27211e-05
0.000346772
1.24396e-05
0.000334607
1.21626e-05
0.000322672
1.19316e-05
0.000310974
1.16949e-05
0.000299459
1.15124e-05
0.000288146
1.13113e-05
0.000276967
1.11762e-05
0.00026596
1.10057e-05
0.00025504
1.09182e-05
0.000244267
1.07729e-05
0.000233532
1.07345e-05
0.000222924
1.06082e-05
0.000212304
1.06213e-05
0.000201801
1.05056e-05
0.000191231
1.05728e-05
0.000180778
1.04568e-05
0.000170201
1.05808e-05
0.000159755
1.04499e-05
0.000149125
1.06345e-05
0.00013866
1.047e-05
0.000127945
1.07194e-05
0.000117452
1.04971e-05
0.00010664
1.0815e-05
9.61402e-05
1.05034e-05
8.52501e-05
1.0893e-05
7.47968e-05
1.04554e-05
6.38837e-05
1.09145e-05
5.35674e-05
1.03176e-05
4.27436e-05
1.08234e-05
3.26572e-05
1.00871e-05
2.21827e-05
1.04725e-05
1.2227e-05
9.95605e-06
3.06894e-06
9.15626e-06
-8.17312e-06
1.12386e-05
-1.33145e-05
5.14502e-06
-2.617e-05
1.28543e-05
-3.32331e-05
7.07863e-06
-3.26745e-05
-5.85071e-07
-6.45632e-05
3.18879e-05
-3.16122e-05
-3.29629e-05
-0.000102574
7.09662e-05
-2.81247e-05
-7.44748e-05
-9.62152e-05
6.81018e-05
-0.000116969
2.08173e-05
-8.29209e-06
-0.000108695
-0.000250354
0.000242067
-1.83381e-05
-0.000232043
-0.00029794
0.000279615
-0.000157213
-0.000140726
-0.000171224
1.39174e-05
-0.000260861
8.96704e-05
-6.39798e-05
-0.000196927
-0.000353968
0.000290018
7.58975e-05
-0.000429908
-0.000853983
0.000929914
-0.0003789
-0.000475007
-0.00011342
-0.000265571
-0.000723221
0.000609864
-0.000114694
-0.000608445
3.59522e-05
-0.000150669
0.000321472
-0.000285563
-0.000512335
0.000833848
-0.000257664
-0.000254561
0.000422153
-0.000679846
-0.000152624
0.000574794
-9.99361e-05
-5.27314e-05
-0.000261023
0.0336653
0.0163251
-0.0372324
0.027728
0.0132998
0.0221763
0.00920082
0.0179035
0.00604791
0.0148587
0.00401633
0.0126993
0.002782
0.011113
0.00203197
0.00989655
0.00155576
0.00892981
0.00123577
0.00813985
0.00100975
0.00747994
0.000843613
0.00691879
0.000717484
0.00643465
0.000619174
0.00601183
0.000540873
0.00563876
0.000477371
0.00530665
0.000425069
0.00500874
0.000381414
0.00473969
0.00034455
0.00449528
0.0003131
0.00427207
0.000286025
0.00406726
0.000262526
0.00387853
0.000241981
0.00370394
0.000223902
0.00354189
0.000207897
0.00339098
0.000193653
0.00325003
0.000180912
0.00311804
0.000169465
0.00299413
0.000159139
0.00287752
0.000149788
0.00276756
0.000141292
0.00266365
0.000133548
0.00256526
0.000126469
0.00247195
0.000119981
0.00238329
0.00011402
0.00229892
0.000108532
0.0022185
0.000103468
0.00214174
9.87861e-05
0.00206835
9.44528e-05
0.00199811
9.04338e-05
0.00193077
8.67049e-05
0.00186614
8.32375e-05
0.00180402
8.0016e-05
0.00174424
7.70141e-05
0.00168664
7.42242e-05
0.00163107
7.16196e-05
0.00157739
6.92019e-05
0.00152548
6.69405e-05
0.0014752
6.4848e-05
0.00142645
6.2886e-05
0.00137911
6.10816e-05
0.0013331
5.93835e-05
0.0012883
5.78381e-05
0.00124464
5.63749e-05
0.001202
5.50665e-05
0.00116035
5.38141e-05
0.00111955
5.27264e-05
0.00107957
5.16641e-05
0.00104029
5.07852e-05
0.0010017
4.98939e-05
0.00096366
4.92155e-05
0.000926185
4.84767e-05
0.000889105
4.79946e-05
0.000852485
4.73895e-05
0.000816113
4.71044e-05
0.000780108
4.66119e-05
0.000744202
4.65268e-05
0.00070859
4.61196e-05
0.000672928
4.62366e-05
0.000637511
4.58779e-05
0.000601898
4.61989e-05
0.000566514
4.58396e-05
0.000530789
4.63662e-05
0.000495325
4.59423e-05
0.000459377
4.66751e-05
0.00042378
4.61014e-05
0.000387565
4.7038e-05
0.000351876
4.61997e-05
0.000315441
4.7335e-05
0.000279818
4.6085e-05
0.000243326
4.74123e-05
0.000208063
4.55842e-05
0.000171831
4.70604e-05
0.000137288
4.46323e-05
0.000102065
4.56979e-05
6.79932e-05
4.40289e-05
3.67538e-05
4.03946e-05
-2.22242e-06
5.0219e-05
-1.75705e-05
2.04838e-05
-6.69198e-05
6.22044e-05
-7.99376e-05
2.00739e-05
-9.70011e-05
1.64906e-05
-0.000177233
0.000112124
-9.75369e-05
-0.000112676
-0.000309025
0.000282453
-7.56719e-05
-0.000307826
-0.000336197
0.000328601
-0.000308359
-6.99398e-06
-5.0972e-05
-0.000366092
-0.000701485
0.000892583
-5.63571e-05
-0.000877206
-0.000916558
0.00113983
-0.000454373
-0.0006029
-0.000637082
0.000196695
-0.000748074
0.000200691
-0.000271234
-0.000673775
-0.000972556
0.000991348
0.000212064
-0.00161453
-0.00252662
0.00366858
-0.00104564
-0.00195602
-0.00057329
-0.000737897
-0.00213579
0.00217235
-0.000263743
-0.00248055
0.000149122
-0.000563499
0.000910084
-0.00104655
-0.00153864
0.00328254
-0.000616485
-0.0011768
0.00121439
-0.00251074
-0.000518445
0.00230762
-0.00019278
-0.000378335
-0.00106668
0.0414338
0.0160222
-0.0411309
0.0391417
0.0155918
0.0352108
0.0131318
0.0309245
0.0103342
0.0270106
0.00793018
0.0237229
0.00606966
0.0210499
0.00470502
0.0188823
0.00372328
0.0171056
0.00301242
0.0156273
0.00248812
0.0143782
0.00209263
0.0133082
0.00178745
0.0123804
0.00154698
0.0115673
0.00135398
0.0108481
0.00119657
0.0102068
0.00106637
0.00963085
0.000957344
0.00911035
0.00086505
0.00863729
0.00078616
0.00820519
0.00071814
0.00780869
0.000659035
0.00744336
0.000607315
0.00710551
0.00056177
0.00679199
0.000521429
0.00650015
0.00048551
0.00622771
0.000453375
0.0059727
0.000424497
0.00573341
0.000398443
0.00550837
0.00037485
0.00529627
0.000353412
0.00509596
0.000333872
0.00490644
0.000316011
0.00472679
0.000299642
0.00455622
0.000284605
0.004394
0.000270758
0.0042395
0.000257985
0.00409211
0.000246178
0.00395132
0.000235249
0.00381664
0.000225114
0.00368764
0.00021571
0.0035639
0.000206968
0.00344507
0.000198843
0.00333081
0.000191274
0.00322079
0.000184235
0.00311473
0.000177668
0.00301236
0.000171564
0.00291343
0.000165862
0.0028177
0.000160573
0.00272495
0.000155625
0.00263497
0.000151056
0.00254757
0.000146774
0.00246255
0.00014285
0.00237975
0.000139161
0.00229899
0.000135826
0.00222012
0.000132671
0.00214296
0.00012988
0.00206741
0.00012721
0.00199326
0.000124928
0.00192045
0.000122698
0.00184876
0.000120903
0.00177816
0.000119071
0.0017084
0.000117745
0.00163952
0.000116271
0.00157121
0.000115409
0.00150358
0.000114248
0.00143626
0.000113849
0.00136943
0.000112944
0.00130267
0.000113003
0.00123627
0.000112279
0.00116969
0.000112788
0.0011034
0.000112143
0.00103668
0.00011309
0.000970245
0.000112387
0.000903174
0.000113756
0.000836471
0.000112814
0.000768941
0.000114576
0.000702008
0.000113141
0.000634085
0.000115266
0.00056718
0.000112997
0.000499131
0.000115467
0.000432779
0.00011194
0.00036513
0.000114713
0.000300021
0.000109743
0.000234029
0.000111691
0.000169819
0.00010824
0.000110623
9.95875e-05
3.88434e-05
0.000122001
7.97236e-06
5.13493e-05
-8.71052e-05
0.000157281
-0.000106074
3.90408e-05
-0.000152155
6.25622e-05
-0.000279783
0.000239754
-0.000160356
-0.000232121
-0.000520754
0.00064285
-0.000122276
-0.000706318
-0.000615096
0.000821417
-0.00049634
-0.000125848
-0.000115395
-0.000747053
-0.0011611
0.00193829
-8.55262e-05
-0.00195281
-0.0015945
0.00264881
-0.000770572
-0.00142683
-0.00122511
0.000651206
-0.00128483
0.000260356
-0.000555189
-0.00140344
-0.00160161
0.00203778
0.000388316
-0.00360448
-0.00426717
0.00832406
-0.00167743
-0.00454575
-0.00129364
-0.00112221
-0.00362401
0.00450273
-0.000291225
-0.00581336
0.000286007
-0.00114071
0.00152246
-0.00228298
-0.00261576
0.00742077
-0.000841064
-0.00295148
0.00201997
-0.00537177
-0.000961325
0.00528893
-0.000162512
-0.00117716
-0.00247057
0.0458954
0.0147231
-0.0445963
0.0459765
0.0155106
0.0443957
0.0147126
0.0416706
0.0130592
0.0384264
0.0111743
0.0351218
0.00937429
0.032024
0.00780279
0.0292472
0.00650002
0.0268102
0.00544941
0.0246868
0.0046115
0.0228358
0.00394358
0.0212154
0.0034079
0.0197882
0.00297414
0.0185231
0.00261904
0.0173946
0.00232512
0.0163817
0.00207924
0.0154675
0.00187154
0.0146381
0.00169447
0.013882
0.00154227
0.0131897
0.00141045
0.0125533
0.00129547
0.011966
0.00119455
0.0114224
0.00110545
0.0109174
0.00102637
0.0104472
0.000955826
0.0100079
0.000892621
0.00959669
0.000835754
0.00921076
0.000784392
0.00884779
0.000737839
0.00850571
0.000695507
0.0081827
0.000656898
0.00787714
0.000621588
0.00758759
0.000589212
0.00731275
0.000559457
0.00705147
0.00053205
0.00680271
0.000506758
0.00656552
0.000483374
0.00633905
0.000461723
0.00612252
0.000441643
0.00591523
0.000423004
0.00571652
0.000405675
0.00552579
0.000389564
0.00534251
0.000374555
0.00516615
0.000360589
0.00499625
0.000347561
0.00483236
0.000335441
0.00467409
0.000324122
0.00452104
0.000313609
0.00437288
0.000303783
0.00422924
0.000294688
0.00408982
0.000286179
0.00395431
0.000278353
0.00382245
0.000271019
0.00369392
0.000264345
0.00356851
0.000258072
0.00344592
0.00025246
0.00332598
0.000247151
0.00320837
0.000242531
0.00309296
0.000238101
0.00297943
0.000234421
0.00286771
0.000230793
0.00275743
0.000228015
0.00264859
0.000225115
0.00254077
0.000223221
0.00243405
0.000220973
0.00232795
0.00021995
0.00222264
0.000218255
0.00211756
0.000218085
0.00201303
0.000216812
0.00190836
0.000217466
0.00180407
0.00021644
0.00169929
0.000217881
0.00159482
0.000216865
0.00148955
0.000219042
0.00138466
0.000217713
0.00127869
0.000220551
0.00117339
0.000218454
0.00106679
0.000221871
0.000961415
0.000218377
0.000854554
0.000222335
0.00074988
0.000216619
0.000643509
0.000221087
0.000540601
0.000212654
0.000436527
0.000215765
0.000335031
0.000209738
0.000240669
0.000193946
0.000128839
0.000233833
7.32181e-05
0.000106966
-7.38062e-05
0.000304304
-0.000100662
6.58945e-05
-0.000187287
0.000149179
-0.000364088
0.000416556
-0.00021175
-0.000384476
-0.000729712
0.00116081
-0.000164407
-0.00127163
-0.00092419
0.00158119
-0.000681191
-0.000368803
-0.000203144
-0.00122511
-0.00162571
0.00336086
-9.93655e-05
-0.00347918
-0.00232575
0.0048752
-0.00110653
-0.00264605
-0.00193702
0.00148168
-0.00188203
0.000205584
-0.000926757
-0.00235873
-0.00224373
0.00335477
0.000621636
-0.00646986
-0.00603562
0.0149813
-0.00226102
-0.00832035
-0.00230337
-0.00107912
-0.00515707
0.00735644
-0.000176571
-0.0107939
0.000432902
-0.00175018
0.00217226
-0.00402233
-0.00370985
0.0133029
-0.00090413
-0.00575719
0.00282958
-0.00910547
-0.00146567
0.00958418
2.50391e-05
-0.00266786
-0.00451655
0.0493605
0.0135289
-0.0481662
0.0503231
0.0145479
0.0503397
0.014696
0.049316
0.0140829
0.04747
0.0130203
0.0450944
0.0117498
0.042461
0.0104362
0.0397762
0.00918483
0.0371746
0.00805097
0.0347307
0.00705543
0.0324764
0.00619778
0.0304178
0.00546651
0.0285463
0.00484561
0.026847
0.00431838
0.0253026
0.00386944
0.0238964
0.00348547
0.0226126
0.00315535
0.0214371
0.00286993
0.0203576
0.00262176
0.0193633
0.00240478
0.0184448
0.00221404
0.0175938
0.00204552
0.0168033
0.00189592
0.0160672
0.00176252
0.01538
0.00164305
0.014737
0.00153564
0.0141341
0.00143872
0.0135675
0.00135096
0.0130341
0.00127124
0.0125311
0.00119861
0.0120557
0.00113225
0.0116058
0.00107148
0.0111794
0.00101568
0.0107745
0.000964345
0.0103896
0.000917011
0.010023
0.000873291
0.00967359
0.000832835
0.00933997
0.00079535
0.00902105
0.000760562
0.00871581
0.000728251
0.00842329
0.000698195
0.00814262
0.00067023
0.00787299
0.000644172
0.00761367
0.000619905
0.00736396
0.000597261
0.00712322
0.000576177
0.00689084
0.000556486
0.00666627
0.000538173
0.00644898
0.000521061
0.00623847
0.000505194
0.00603428
0.000490361
0.00583594
0.00047668
0.00564307
0.000463883
0.00545522
0.000452186
0.00527206
0.000441226
0.00509316
0.000431354
0.00491823
0.000422068
0.00474686
0.000413896
0.00457881
0.000406143
0.00441365
0.000399574
0.00425122
0.000393225
0.00409103
0.000388191
0.00393302
0.000383127
0.00377665
0.000379588
0.00362194
0.000375687
0.00346827
0.000373614
0.00331581
0.000370722
0.00316383
0.000370072
0.00301266
0.000367986
0.00286143
0.000368703
0.00271073
0.000367147
0.00255946
0.000369155
0.00240858
0.00036776
0.00225668
0.000370952
0.0021052
0.000369205
0.00195232
0.000373434
0.00180018
0.000370605
0.00164635
0.000375712
0.00149396
0.000370774
0.00133962
0.000376678
0.001188
0.000368243
0.00103416
0.000374936
0.000884796
0.000362021
0.000733841
0.000366721
0.000586467
0.000357114
0.000448132
0.000332279
0.00028774
0.000394226
0.000199499
0.000195203
-1.25317e-05
0.000516332
-4.68878e-05
0.000100249
-0.000189132
0.000291413
-0.000417156
0.000644581
-0.000241378
-0.000560273
-0.000924596
0.00184402
-0.000194478
-0.00200176
-0.00125422
0.00264093
-0.000858174
-0.000764871
-0.000314946
-0.00176835
-0.00208481
0.00513073
-9.24662e-05
-0.00547156
-0.00309539
0.00787813
-0.00145599
-0.00428546
-0.00277394
0.00279963
-0.00254281
-2.56805e-05
-0.00140367
-0.00349789
-0.00289651
0.00484762
0.000924523
-0.0102909
-0.00777075
0.0236766
-0.00277214
-0.013319
-0.00362109
-0.000231514
-0.0066966
0.0104319
9.36565e-05
-0.0175842
0.000577844
-0.00223431
0.00287307
-0.00631755
-0.00477398
0.0209499
-0.000778487
-0.00975269
0.0036316
-0.0135156
-0.00200564
0.0152214
0.000375635
-0.00504915
-0.00725774
0.0528174
0.0126308
-0.0519193
0.0538453
0.01352
0.0545281
0.0140132
0.0545958
0.0140152
0.0539959
0.0136202
0.0527978
0.0129479
0.0511309
0.012103
0.0491418
0.0111739
0.046965
0.0102277
0.0447112
0.00930922
0.0424625
0.00844644
0.040275
0.00765404
0.0381831
0.00693747
0.0362053
0.00629614
0.034349
0.00572576
0.0326143
0.00522018
0.0309971
0.00477257
0.0294909
0.00437611
0.0280882
0.00402444
0.0267812
0.00371179
0.0255621
0.00343312
0.0244237
0.00318399
0.023359
0.0029606
0.0223619
0.00275969
0.0214265
0.00257844
0.0205477
0.00241446
0.0197208
0.00226566
0.0189415
0.00213028
0.0182059
0.00200679
0.0175107
0.00189387
0.0168526
0.00179037
0.0162288
0.0016953
0.0156367
0.0016078
0.0150739
0.00152711
0.0145384
0.00145255
0.0140281
0.00138357
0.0135413
0.00131963
0.0130764
0.00126029
0.0126318
0.00120516
0.0122062
0.00115388
0.0117982
0.00110613
0.0114068
0.00106166
0.0110308
0.00102017
0.0106692
0.000981502
0.0103211
0.000945391
0.0099855
0.000911728
0.0096617
0.000880272
0.00934888
0.000850982
0.00904633
0.000823603
0.00875334
0.000798176
0.00846928
0.000774405
0.00819352
0.000752434
0.0079255
0.000731893
0.00766462
0.000713057
0.0074104
0.000695437
0.00716226
0.000679484
0.00691979
0.000664529
0.00668242
0.000651259
0.00644981
0.000638749
0.00622137
0.000628007
0.00599684
0.000617746
0.00577561
0.000609418
0.0055575
0.00060123
0.00534184
0.000595246
0.00512858
0.000588947
0.00491695
0.000585252
0.00470705
0.000580618
0.00449799
0.000579141
0.0042901
0.000575878
0.00408229
0.000576523
0.00387522
0.000574227
0.00366752
0.000576865
0.00346029
0.000574994
0.00325181
0.000579445
0.00304379
0.00057724
0.00283397
0.000583256
0.00262496
0.000579629
0.00241374
0.000586938
0.00220419
0.000580338
0.00199208
0.000588792
0.00178325
0.000577085
0.0015715
0.000586692
0.00136532
0.000568197
0.00115695
0.000575091
0.000953377
0.000560691
0.000760461
0.000525193
0.000541442
0.000613246
0.000410168
0.000326472
0.000131247
0.000795252
6.87963e-05
0.000162696
-0.000140326
0.000500527
-0.00042111
0.000925365
-0.000235072
-0.00074633
-0.00109016
0.0026991
-0.000200492
-0.00289144
-0.00159126
0.0040317
-0.00101917
-0.00133698
-0.000449578
-0.00233794
-0.00252586
0.00720701
-6.01357e-05
-0.00793731
-0.00388174
0.0116997
-0.00180748
-0.00635973
-0.00372891
0.00472107
-0.00326719
-0.000487301
-0.00200608
-0.00475902
-0.00356065
0.00640219
0.00130181
-0.0151534
-0.00940336
0.0343817
-0.00317488
-0.0195475
-0.00523721
0.00183243
-0.00821158
0.0134063
0.000544965
-0.0263408
0.000710483
-0.00239981
0.00363833
-0.00924538
-0.0057526
0.0303408
-0.000431898
-0.0150734
0.00441855
-0.018366
-0.002549
0.022189
0.000923818
-0.00852199
-0.0107187
0.0565361
0.0119439
-0.0558492
0.0573894
0.0126667
0.0581855
0.013217
0.0587114
0.0134892
0.0588452
0.0134864
0.058541
0.0132521
0.0578083
0.0128357
0.056695
0.0122872
0.0552696
0.011653
0.0536076
0.0109712
0.0517824
0.0102716
0.0498594
0.00957706
0.047893
0.00890377
0.0459265
0.00826272
0.0439916
0.00766062
0.0421109
0.00710089
0.040299
0.00658446
0.0385645
0.00611055
0.0369117
0.00567723
0.0353416
0.0052819
0.0338532
0.00492162
0.0324438
0.00459337
0.0311102
0.00429419
0.0298486
0.0040213
0.028655
0.0037721
0.0275252
0.00354422
0.0264554
0.00333553
0.0254416
0.00314412
0.0244801
0.00296826
0.0235676
0.00280644
0.0227007
0.0026573
0.0218764
0.00251962
0.0210918
0.00239234
0.0203445
0.0022745
0.0196318
0.00216525
0.0189515
0.00206383
0.0183016
0.00196956
0.01768
0.00188186
0.017085
0.00180017
0.0165149
0.00172403
0.015968
0.001653
0.0154429
0.00158671
0.0149383
0.00152478
0.0144529
0.00146696
0.0139854
0.00141289
0.0135347
0.0013624
0.0130998
0.00131518
0.0126796
0.00127114
0.0122733
0.00122993
0.0118798
0.0011916
0.0114985
0.00115574
0.0111284
0.00112253
0.0107688
0.00109148
0.0104189
0.00106292
0.0100781
0.00103622
0.00974564
0.00101195
0.00942093
0.000989233
0.00910323
0.000968951
0.00879207
0.000949903
0.00848669
0.000933381
0.00818671
0.000917719
0.00789133
0.000904787
0.0076003
0.00089226
0.00731273
0.00088281
0.00702852
0.00087316
0.00674667
0.000867107
0.00646726
0.000860023
0.00618915
0.000857259
0.0059127
0.000852333
0.00563652
0.000852713
0.00536137
0.00084939
0.00508552
0.000852719
0.00481029
0.000850236
0.00453351
0.000856242
0.00425722
0.000853533
0.00397866
0.000861835
0.00370094
0.000857356
0.00342036
0.000867533
0.00314164
0.000859067
0.00285957
0.000870868
0.00258133
0.000855324
0.00229927
0.000868759
0.00202396
0.000843515
0.00174559
0.000853457
0.00147345
0.000832838
0.00121319
0.000785447
0.000923484
0.000902954
0.000736223
0.000513729
0.000377536
0.00115394
0.000270868
0.000269361
-2.13521e-05
0.000792736
-0.000351686
0.0012557
-0.000173911
-0.000924124
-0.00120574
0.00373092
-0.000164338
-0.00393285
-0.00191534
0.0057827
-0.00115158
-0.00210076
-0.000602089
-0.00288744
-0.00293527
0.00954017
-4.82294e-07
-0.0108721
-0.00465752
0.0163568
-0.00214341
-0.00887386
-0.00478255
0.00736023
-0.00404933
-0.00122068
-0.00275207
-0.00605629
-0.00424261
0.00789273
0.00174343
-0.0211395
-0.0108707
0.0469958
-0.00342273
-0.0269954
-0.00709818
0.00550727
-0.00968522
0.0159933
0.0010335
-0.0370596
0.00082139
-0.00218764
0.00447776
-0.0129017
-0.0065887
0.0414073
0.000157093
-0.0218192
0.00519569
-0.0234045
-0.0030596
0.0304443
0.00166878
-0.0132504
-0.0149198
0.06054
0.0113808
-0.0599769
0.0612242
0.0119824
0.0619385
0.0125027
0.0625602
0.0128675
0.0629915
0.013055
0.0631687
0.0130749
0.063056
0.0129483
0.0626432
0.0127001
0.0619403
0.0123558
0.0609722
0.0119393
0.0597733
0.0114705
0.0583833
0.0109671
0.0568434
0.0104436
0.0551938
0.00991236
0.0534712
0.00938317
0.0517082
0.00886393
0.0499319
0.00836069
0.0481646
0.00787788
0.0464233
0.00741848
0.044721
0.00698423
0.0430668
0.00657588
0.0414667
0.00619344
0.0399246
0.00583633
0.0384423
0.00550359
0.0370204
0.00519401
0.0356584
0.00490625
0.0343551
0.00463888
0.0331087
0.0043905
0.0319173
0.00415973
0.0307785
0.00394524
0.02969
0.00374578
0.0286495
0.0035602
0.0276544
0.00338741
0.0267025
0.00322642
0.0257915
0.00307631
0.0249191
0.00293625
0.0240832
0.00280547
0.0232818
0.00268328
0.0225129
0.00256903
0.0217748
0.00246218
0.0210656
0.00236218
0.0203837
0.00226859
0.0197275
0.00218092
0.0190956
0.00209886
0.0184866
0.00202195
0.017899
0.00194999
0.0173316
0.00188255
0.0167832
0.00181952
0.0162527
0.00176045
0.0157388
0.00170539
0.0152407
0.00165383
0.0147573
0.00160596
0.0142876
0.00156116
0.0138307
0.00151985
0.0133857
0.00148122
0.0129516
0.00144598
0.0125278
0.00141301
0.0121134
0.00138342
0.0117076
0.00135569
0.0113095
0.00133145
0.0109186
0.00130857
0.010534
0.00128944
0.0101551
0.00127108
0.00978103
0.00125691
0.00941146
0.00124273
0.00904517
0.0012334
0.00868221
0.00122298
0.00832114
0.00121834
0.00796233
0.00121114
0.00760405
0.001211
0.00724716
0.00120628
0.00688952
0.00121037
0.00653266
0.00120711
0.00617388
0.00121504
0.00581565
0.00121178
0.00545448
0.00122301
0.0050942
0.00121765
0.00473018
0.00123157
0.00436819
0.00122107
0.00400179
0.00123727
0.00363978
0.00121734
0.00327272
0.00123582
0.00291363
0.00120261
0.0025503
0.00121679
0.00219482
0.00118832
0.00185194
0.00112832
0.00147711
0.00127779
0.00121804
0.000772794
0.000765228
0.00160675
0.000601153
0.000433432
0.000230367
0.00116351
-0.000174851
0.00166092
-3.52823e-05
-0.00106371
-0.00124391
0.00493954
-5.71316e-05
-0.00511964
-0.00219872
0.00792429
-0.00123613
-0.00306337
-0.000761476
-0.00336209
-0.00329811
0.0120768
0.000142718
-0.014313
-0.00539091
0.0218904
-0.0024392
-0.0118256
-0.00589858
0.0108196
-0.00487372
-0.00224549
-0.00365121
-0.00727882
-0.00495451
0.00919603
0.00221773
-0.0283117
-0.0121289
0.0613424
-0.00346275
-0.0356616
-0.00909136
0.0111361
-0.0111092
0.0180111
0.00145295
-0.0496218
0.000901948
-0.00163656
0.00539099
-0.0173908
-0.00722839
0.0540266
0.000963412
-0.030011
0.00598854
-0.0284296
-0.0034977
0.0399305
0.0025947
-0.0193428
-0.019882
0.0648227
0.0108964
-0.0643383
0.0653879
0.0114172
0.0659953
0.0118952
0.0665798
0.012283
0.0670787
0.0125561
0.0674435
0.0127101
0.0676388
0.012753
0.0676406
0.0126982
0.0674358
0.0125607
0.0670202
0.0123548
0.0663975
0.0120932
0.0655783
0.0117863
0.0645783
0.0114436
0.0634175
0.0110731
0.0621186
0.0106821
0.0607056
0.0102769
0.0592029
0.00986338
0.057634
0.00944685
0.0560204
0.009032
0.0543818
0.00862287
0.0527349
0.00822281
0.0510938
0.00783451
0.0494702
0.00745999
0.0478731
0.00710069
0.0463096
0.00675751
0.044785
0.00643093
0.0433028
0.00612106
0.0418656
0.00582773
0.0404748
0.00555059
0.0391309
0.00528912
0.037834
0.0050427
0.0365836
0.00481064
0.0353788
0.00459224
0.0342184
0.00438677
0.0331013
0.00419351
0.0320258
0.00401176
0.0309904
0.00384083
0.0299936
0.00368011
0.0290337
0.00352895
0.028109
0.00338682
0.027218
0.00325316
0.0263591
0.0031275
0.0255307
0.00300933
0.0247313
0.00289828
0.0239594
0.00279387
0.0232135
0.00269584
0.0224923
0.0026037
0.0217945
0.00251735
0.0211187
0.00243623
0.0204637
0.00236041
0.0198283
0.00228925
0.0192112
0.00222302
0.0186114
0.00216093
0.0180277
0.00210352
0.0174592
0.00204977
0.0169046
0.00200056
0.0163631
0.00195451
0.0158335
0.001913
0.0153151
0.00187411
0.0148066
0.00183991
0.0143074
0.00180771
0.0138164
0.00178051
0.0133329
0.00175457
0.0128556
0.00173419
0.0123843
0.00171407
0.0119173
0.00170037
0.0114547
0.00168555
0.0109947
0.00167835
0.0105377
0.00166814
0.0100816
0.00166718
0.00962723
0.00166062
0.00917204
0.00166557
0.00871783
0.00166133
0.00826121
0.00167167
0.00780517
0.00166784
0.00734536
0.00168283
0.00688639
0.00167663
0.00642254
0.00169543
0.00596081
0.0016828
0.00549328
0.00170481
0.00503062
0.00168001
0.0045613
0.00170514
0.00410116
0.00166276
0.00363514
0.00168281
0.00317878
0.00164468
0.00273506
0.00157204
0.00225782
0.00175502
0.00190783
0.00112279
0.00134442
0.00217015
0.00110464
0.000673208
0.000634875
0.00163327
0.000140186
0.0021556
0.000242888
-0.00116644
-0.00116845
0.00635086
0.000128048
-0.00641614
-0.00240451
0.0104569
-0.00124402
-0.00422389
-0.000907733
-0.00369837
-0.00359648
0.0147655
0.000325645
-0.0182351
-0.00604716
0.0282632
-0.00266294
-0.0152098
-0.00702337
0.0151801
-0.00571132
-0.00355755
-0.00469498
-0.00829518
-0.00571056
0.0102116
0.00266751
-0.0366898
-0.0131642
0.0771741
-0.00323416
-0.0455917
-0.0110332
0.0189354
-0.0124662
0.0194441
0.00166879
-0.0637568
0.000946307
-0.000914384
0.00636055
-0.022805
-0.00762709
0.0680142
0.00208645
-0.0397246
0.00685072
-0.0331939
-0.00381651
0.0505978
0.00367126
-0.0268306
-0.0256332
0.0693931
0.0104691
-0.0689658
0.0698764
0.0109338
0.0703967
0.0113749
0.0709183
0.0117614
0.0714015
0.0120729
0.0718125
0.012299
0.0721253
0.0124402
0.0723206
0.012503
0.0723841
0.0124971
0.0723059
0.012433
0.072079
0.01232
0.0716997
0.0121656
0.0711673
0.0119759
0.0704843
0.0117562
0.069656
0.0115104
0.0686909
0.011242
0.0676002
0.0109541
0.0663973
0.0106498
0.0650971
0.0103322
0.0637155
0.0100045
0.0622685
0.00966981
0.0607718
0.0093313
0.0592399
0.00899186
0.0576864
0.00865418
0.0561233
0.00832062
0.0545611
0.00799321
0.0530085
0.00767364
0.051473
0.00736323
0.0499607
0.007063
0.0484761
0.00677367
0.0470232
0.0064957
0.0456045
0.00622935
0.044222
0.00597471
0.0428771
0.00573173
0.0415704
0.00550022
0.0403022
0.00527996
0.0390724
0.00507062
0.0378806
0.00487187
0.0367263
0.00468333
0.0356085
0.00450464
0.0345262
0.00433537
0.0334786
0.00417518
0.0324642
0.00402363
0.0314821
0.00388042
0.0305309
0.00374508
0.0296093
0.00361742
0.0287161
0.00349691
0.0278499
0.0033835
0.0270096
0.00327658
0.0261937
0.00317627
0.0254011
0.00308185
0.0246304
0.00299367
0.0238805
0.00291079
0.0231501
0.00283391
0.0224381
0.00276177
0.0217432
0.0026955
0.0210643
0.00263338
0.0204001
0.00257717
0.0197498
0.00252448
0.0191118
0.00247788
0.0184854
0.00243404
0.0178692
0.00239673
0.0172625
0.00236126
0.0166637
0.00233304
0.0160723
0.0023054
0.0154866
0.00228613
0.0149064
0.00226571
0.0143296
0.00225518
0.0137566
0.00224112
0.0131848
0.00223906
0.0126152
0.00223018
0.0120446
0.00223618
0.0114752
0.00223078
0.0109027
0.00224418
0.0103307
0.00223982
0.00975386
0.0022597
0.00917771
0.00225279
0.00859515
0.00227801
0.00801468
0.00226328
0.00742651
0.00229299
0.00684359
0.00226294
0.00625185
0.00229689
0.00567042
0.00224419
0.00508086
0.00227237
0.00450291
0.00222263
0.00393673
0.00213822
0.00333653
0.00235522
0.00287269
0.00158663
0.00217933
0.0028635
0.00184075
0.00101178
0.00125014
0.00222387
0.000630387
0.00277535
0.000690458
-0.00122653
-0.000932091
0.00797339
0.000439312
-0.00778756
-0.00248497
0.0133811
-0.0011331
-0.00557578
-0.00100839
-0.00382307
-0.00380585
0.017563
0.00056313
-0.0226042
-0.00658934
0.0354157
-0.00277475
-0.0190244
-0.0080841
0.0204895
-0.00651296
-0.00512869
-0.00584579
-0.00896236
-0.00651876
0.0108846
0.00301284
-0.0462214
-0.0139941
0.094181
-0.00267338
-0.0569124
-0.0126775
0.0289396
-0.0136986
0.0204652
0.00157257
-0.0790281
0.000958855
-0.000301429
0.00734717
-0.0291933
-0.00775041
0.0831118
0.00356705
-0.051042
0.00786988
-0.0374966
-0.00395157
0.0624192
0.00486545
-0.0356477
-0.0322103
0.0742708
0.0100862
-0.073888
0.0746949
0.0105097
0.0751493
0.0109205
0.0756132
0.0112974
0.0760608
0.0116252
0.0764675
0.0118923
0.0768135
0.0120941
0.0770842
0.0122322
0.0772692
0.0123121
0.0773612
0.012341
0.0773543
0.0123269
0.0772435
0.0122764
0.0770243
0.0121951
0.076693
0.0120875
0.0762463
0.0119571
0.0756824
0.0118059
0.075001
0.0116355
0.0742039
0.0114469
0.073295
0.0112411
0.0722803
0.0110192
0.0711677
0.0107824
0.0699668
0.0105322
0.0686882
0.0102705
0.0673432
0.00999918
0.0659434
0.00972038
0.0645004
0.00943628
0.063025
0.00914902
0.0615276
0.00886065
0.0600176
0.00857306
0.0585033
0.00828796
0.0569922
0.00800684
0.0554906
0.00773098
0.0540039
0.00746141
0.0525366
0.00719901
0.0510925
0.00694441
0.0496743
0.00669813
0.0482844
0.00646049
0.0469246
0.00623176
0.0455959
0.00601202
0.0442992
0.00580136
0.0430348
0.0055997
0.041803
0.00540704
0.0406034
0.00522314
0.0394359
0.00504798
0.0382997
0.00488121
0.0371943
0.00472284
0.0361188
0.00457241
0.0350723
0.00443001
0.0340538
0.00429506
0.0330622
0.00416782
0.0320965
0.0040475
0.0311556
0.00393464
0.0302382
0.00382816
0.0293431
0.00372898
0.0284692
0.00363562
0.0276152
0.00354952
0.02678
0.00346862
0.025962
0.00339511
0.0251604
0.00332606
0.0243736
0.00326473
0.0236006
0.00320698
0.0228398
0.00315754
0.0220905
0.00311057
0.0213506
0.00307287
0.0206199
0.00303612
0.019896
0.00301007
0.0191789
0.00298282
0.0184658
0.00296826
0.0177574
0.00294954
0.0170503
0.00294618
0.0163459
0.00293454
0.0156402
0.00294195
0.0149356
0.00293531
0.0142271
0.00295273
0.0135189
0.00294804
0.0128043
0.00297432
0.0120901
0.00296703
0.0113674
0.00300072
0.0106465
0.00298415
0.00991543
0.00302409
0.00918973
0.00298864
0.00845228
0.00303435
0.00772614
0.00297034
0.00698873
0.00300979
0.00626492
0.00294644
0.00555086
0.00285228
0.00480336
0.00310272
0.00419843
0.00219155
0.00335214
0.00370979
0.00288649
0.00147743
0.00215058
0.00295977
0.00138649
0.00353944
0.0013701
-0.00121016
-0.000474111
0.00981759
0.000945599
-0.00920728
-0.00237938
0.0167061
-0.000841806
-0.00711338
-0.00101496
-0.00364992
-0.00388955
0.0204375
0.000870728
-0.0273645
-0.006977
0.0432634
-0.00272559
-0.0232759
-0.00899057
0.0267545
-0.00720416
-0.00691511
-0.0070267
-0.00913982
-0.0073667
0.0112246
0.00316457
-0.0567527
-0.0146541
0.112