/*--------------------------------*- C++ -*----------------------------------*\
| =========                 |                                                 |
| \\      /  F ield         | OpenFOAM: The Open Source CFD Toolbox           |
|  \\    /   O peration     | Version:  2412                                  |
|   \\  /    A nd           | Website:  www.openfoam.com                      |
|    \\/     M anipulation  |                                                 |
\*---------------------------------------------------------------------------*/
FoamFile
{
    version     2.0;
    format      ascii;
    arch        "LSB;label=32;scalar=64";
    class       volVectorField;
    location    "1.775";
    object      U_0;
}
// * * * * * * * * * * * * * * * * * * * * * * * * * * * * * * * * * * * * * //

dimensions      [0 1 -1 0 0 0 0];

internalField   nonuniform List<vector> 
12600
(
(18.715 1.2409e-21 2.09215)
(11.6065 1.60825e-20 0.450045)
(7.34385 1.89072e-20 -0.47773)
(5.08537 0 -0.708722)
(3.97398 1.70916e-20 -0.681812)
(3.33402 1.59178e-20 -0.607189)
(2.89321 0 -0.539576)
(2.56225 0 -0.484187)
(2.3028 -4.78591e-20 -0.438769)
(2.09277 0 -0.401054)
(1.91846 2.00758e-20 -0.3692)
(1.77096 1.83833e-20 -0.341882)
(1.64417 -1.68417e-20 -0.318152)
(1.53374 0 -0.297315)
(1.43651 -1.41167e-20 -0.278848)
(1.35008 0 -0.262348)
(1.27263 4.74384e-20 -0.247501)
(1.20273 0 -0.234056)
(1.13926 -1.98553e-20 -0.221812)
(1.08131 -1.81596e-20 -0.210607)
(1.02812 1.65775e-20 -0.200305)
(0.9791 5.47846e-24 -0.190795)
(0.933738 0 -0.181983)
(0.891608 -2.50093e-20 -0.17379)
(0.85235 0 -0.166149)
(0.815659 0 -0.159002)
(0.78127 -1.85407e-20 -0.1523)
(0.748957 0 -0.146)
(0.718522 3.99825e-24 -0.140063)
(0.689791 1.33963e-20 -0.134457)
(0.662613 1.19259e-20 -0.129153)
(0.636855 1.05637e-20 -0.124125)
(0.612396 -9.30218e-21 -0.11935)
(0.589132 -1.62686e-20 -0.114809)
(0.566967 -1.41073e-20 -0.110481)
(0.545817 1.20976e-20 -0.106352)
(0.525606 0 -0.102407)
(0.506263 -8.55391e-21 -0.0986314)
(0.487727 0 -0.0950137)
(0.469941 5.52601e-21 -0.0915427)
(0.452852 0 -0.0882085)
(0.436413 1.74738e-23 -0.0850015)
(0.420581 0 -0.0819135)
(0.405314 1.59182e-23 -0.0789363)
(0.390577 -3.50958e-22 -0.0760632)
(0.376333 2.07903e-21 -0.0732868)
(0.362554 -3.68496e-21 -0.0706017)
(0.349206 0 -0.068001)
(0.336266 0 -0.0654808)
(0.323703 -7.65062e-21 -0.0630343)
(0.3115 -1.7465e-20 -0.0606589)
(0.299624 -1.94146e-20 -0.0583477)
(0.288068 1.94244e-23 -0.0560994)
(0.276794 -2.27119e-20 -0.0539066)
(0.265806 0 -0.05177)
(0.255058 2.53523e-20 -0.0496808)
(0.244566 2.6433e-20 -0.047642)
(0.234278 2.73576e-20 -0.0456431)
(0.224221 0 -0.04369)
(0.21433 0 -0.0417695)
(0.204654 0 -0.0398914)
(0.195107 -5.98234e-20 -0.0380387)
(0.185763 0 -0.0362261)
(0.176513 0 -0.0344319)
(0.16746 1.23013e-19 -0.0326767)
(0.158464 0 -0.0309326)
(0.149669 0 -0.0292279)
(0.140891 0 -0.027527)
(0.132326 -1.23165e-19 -0.0258676)
(0.123741 1.22553e-19 -0.0242045)
(0.11539 1.21756e-19 -0.022587)
(0.10698 2.31565e-23 -0.0209584)
(0.0988371 -1.19533e-19 -0.0193815)
(0.0906003 0 -0.0177867)
(0.0826723 1.1661e-19 -0.0162514)
(0.0746228 0 -0.0146929)
(0.0669292 0 -0.0132029)
(0.059107 0 -0.0116882)
(0.0516768 2.79947e-23 -0.0102487)
(0.0441611 2.13677e-19 -0.00879292)
(0.0370173 2.09179e-19 -0.00740824)
(0.0299513 -2.04321e-19 -0.00603863)
(0.0230842 -1.99475e-19 -0.00470687)
(0.0166702 0 -0.00346203)
(0.0101592 0 -0.00219869)
(0.00416809 3.67623e-19 -0.00103401)
(-0.000376037 -7.14123e-19 -0.000150534)
(-0.0100626 6.90378e-19 0.00170338)
(-0.00336281 3.36211e-19 0.000468186)
(-0.0300581 0 0.00555988)
(-0.00116711 -6.33779e-19 5.80103e-05)
(-0.0414864 2.94238e-19 0.00782278)
(-0.0193889 -2.95184e-19 0.00331332)
(-0.0192274 5.4897e-19 0.00396143)
(-0.0898175 0 0.016455)
(0.0725745 0 -0.0133232)
(-0.197078 0 0.0373801)
(0.118284 0 -0.0227761)
(-0.143124 0 0.0283399)
(-0.0513998 0 0.00813348)
(0.0261167 -3.89205e-19 -0.00353967)
(-0.293368 -7.92077e-19 0.0548345)
(0.184571 -8.65919e-19 -0.0348386)
(-0.383368 0 0.073265)
(0.222103 0 -0.0425576)
(-0.316792 0 0.0612258)
(0.0944144 -7.98472e-19 -0.0201888)
(-0.0632521 -9.84014e-19 0.0150719)
(-0.574656 6.38909e-19 0.106645)
(0.33061 0 -0.0625706)
(-0.463709 -8.76913e-19 0.0907238)
(0.00305119 0 -0.00316568)
(-0.11022 -9.83145e-19 0.0207086)
(0.153638 1.13646e-18 -0.0299281)
(0.0340889 -8.56057e-19 -0.00433526)
(-0.365917 -8.99965e-19 0.0685297)
(0.228566 9.65391e-19 -0.0446627)
(0.00964253 1.66783e-22 -0.000132117)
(-0.0978135 7.5442e-19 0.0183518)
(0.0445535 0 -0.00922426)
(29.1172 -1.25269e-21 4.02257)
(25.0785 0 1.85546)
(20.2219 -1.91362e-20 -0.214745)
(16.061 0 -1.21188)
(13.106 -1.73187e-20 -1.50686)
(11.0663 -3.04123e-20 -1.51776)
(9.59606 -1.40784e-20 -1.4402)
(8.48547 0 -1.34272)
(7.61366 3.55681e-22 -1.24746)
(6.90793 -2.18946e-20 -1.16049)
(6.3227 2.01042e-20 -1.08249)
(5.82799 1.84579e-20 -1.01275)
(5.40321 -1.69441e-20 -0.950247)
(5.03374 1.55512e-20 -0.894018)
(4.70883 2.85933e-20 -0.843203)
(4.42043 0 -0.797067)
(4.16234 -6.47387e-23 -0.754993)
(3.92973 2.19717e-20 -0.716461)
(3.71879 2.01442e-20 -0.68103)
(3.52643 0 -0.648332)
(3.35014 0 -0.61805)
(3.18786 1.53235e-20 -0.589917)
(3.03788 0 -0.563702)
(2.89877 1.26779e-20 -0.539207)
(2.76929 -2.29924e-20 -0.516261)
(2.64842 0 -0.494714)
(2.53527 1.87918e-20 -0.474434)
(2.42907 0 -0.455309)
(2.32916 -1.5177e-20 -0.437235)
(2.23495 -2.71394e-20 -0.420124)
(2.14593 -2.41562e-20 -0.403896)
(2.06164 -1.06924e-20 -0.388479)
(1.9817 9.4129e-21 -0.37381)
(1.90574 3.29326e-20 -0.359831)
(1.83345 2.85512e-20 -0.346491)
(1.76453 0 -0.333744)
(1.69874 0 -0.321546)
(1.63584 -1.72124e-23 -0.309859)
(1.57563 0 -0.298649)
(1.51791 -5.57873e-21 -0.287882)
(1.4625 0 -0.277529)
(1.40925 -5.9637e-21 -0.267563)
(1.35802 0 -0.25796)
(1.30866 -1.58167e-21 -0.248694)
(1.26107 0 -0.239747)
(1.2151 -2.09345e-21 -0.231096)
(1.17068 0 -0.222725)
(1.12768 0 -0.214613)
(1.08604 6.4562e-21 -0.20675)
(1.04565 0 -0.199113)
(1.00645 0 -0.191696)
(0.968336 0 -0.184477)
(0.931279 2.12132e-20 -0.177453)
(0.895161 4.55087e-20 -0.170601)
(0.859984 0 -0.163923)
(0.825611 0 -0.157392)
(0.792081 -2.64085e-20 -0.151019)
(0.75923 -2.73563e-20 -0.144769)
(0.727141 0 -0.138663)
(0.695612 0 -0.132656)
(0.664783 0 -0.126784)
(0.634397 0 -0.120989)
(0.604668 -6.02875e-20 -0.115322)
(0.575266 6.07959e-20 -0.109709)
(0.5465 -1.22313e-19 -0.104221)
(0.517942 0 -0.0987638)
(0.490021 0 -0.0934346)
(0.462187 0 -0.0881113)
(0.435019 4.70237e-23 -0.0829239)
(0.407818 -1.21381e-19 -0.0777177)
(0.381342 -1.20482e-19 -0.0726614)
(0.354715 2.3865e-19 -0.0675614)
(0.328903 3.54681e-23 -0.0626319)
(0.30283 -1.16528e-19 -0.0576348)
(0.277693 -1.14951e-19 -0.0528352)
(0.25221 0 -0.0479483)
(0.227799 0 -0.0432894)
(0.203017 0 -0.0385345)
(0.179415 2.14132e-19 -0.0340332)
(0.155567 0 -0.0294552)
(0.132843 0 -0.0251255)
(0.110351 1.99973e-19 -0.0208063)
(0.0884826 1.95021e-19 -0.0166429)
(0.0679604 0 -0.0127053)
(0.0471532 0 -0.00873654)
(0.028065 0 -0.00510653)
(0.012732 6.95093e-19 -0.00211095)
(-0.0162747 -4.75895e-23 0.00326224)
(-6.68882e-06 3.26529e-19 0.000364799)
(-0.0773926 -3.10543e-19 0.0150198)
(0.00428251 6.14221e-19 -0.00079982)
(-0.116047 2.8482e-19 0.0230031)
(-0.0470295 5.70888e-19 0.00800512)
(-0.0583136 0 0.0131252)
(-0.247156 0 0.0451767)
(0.19769 0 -0.0358648)
(-0.56961 0 0.10973)
(0.353687 5.20454e-19 -0.0699682)
(-0.440482 0 0.089769)
(-0.106739 0 0.0150907)
(0.0443456 -3.73502e-19 -0.00221145)
(-0.825941 3.79309e-19 0.15541)
(0.51195 1.65773e-18 -0.0978368)
(-1.13837 -5.60257e-19 0.219655)
(0.6603 0 -0.129587)
(-0.967694 0 0.189943)
(0.346569 0 -0.073795)
(-0.243457 4.68761e-19 0.0618828)
(-1.56916 -6.08053e-19 0.293704)
(0.919723 0 -0.179644)
(-1.44155 1.66647e-18 0.285039)
(0.111391 1.18218e-18 -0.0298786)
(-0.331123 1.86507e-18 0.0615106)
(0.471445 0 -0.0937337)
(0.0518039 0 0.000236214)
(-1.00333 -8.50982e-19 0.18974)
(0.694773 0 -0.140251)
(-0.0333628 -7.33001e-19 0.0125823)
(-0.256076 -7.12367e-19 0.0486612)
(0.163089 0 -0.0338854)
(31.8608 0 3.8931)
(31.0473 0 2.81511)
(28.5196 -1.29675e-20 1.02083)
(25.1803 0 -0.384398)
(21.933 0 -1.22711)
(19.1644 1.51173e-20 -1.65111)
(16.91 1.33324e-20 -1.81901)
(15.0881 0 -1.85046)
(13.603 4.2025e-22 -1.81673)
(12.3748 2.07421e-20 -1.75426)
(11.343 -3.7884e-20 -1.68052)
(10.4635 -1.74887e-20 -1.60387)
(9.70416 1.14528e-22 -1.52828)
(9.0411 -1.4736e-20 -1.45558)
(8.45647 -1.35207e-20 -1.38659)
(7.93658 1.23505e-20 -1.32154)
(7.47078 -2.2732e-20 -1.26043)
(7.05066 -2.08213e-20 -1.2031)
(6.6695 0 -1.14933)
(6.32184 0 -1.09887)
(6.00324 1.5883e-20 -1.05148)
(5.71001 1.44888e-20 -1.00691)
(5.43907 0 -0.964956)
(5.18784 0 -0.925395)
(4.95412 2.17867e-20 -0.888041)
(4.73605 0 -0.852718)
(4.53201 -3.56058e-20 -0.819269)
(4.34061 1.6028e-20 -0.787549)
(4.16065 0 -0.757426)
(3.99106 1.2859e-20 -0.728782)
(3.83092 1.14458e-20 -0.701509)
(3.6794 0 -0.675507)
(3.53578 -8.92977e-21 -0.650688)
(3.3994 -1.56054e-20 -0.626968)
(3.2697 1.19781e-23 -0.604274)
(3.14614 0 -0.582535)
(3.02827 0 -0.561689)
(2.91566 8.19997e-21 -0.541677)
(2.80793 0 -0.522447)
(2.70473 0 -0.503948)
(2.60575 0 -0.486136)
(2.51069 0 -0.468966)
(2.41929 0 -0.4524)
(2.3313 0 -0.4364)
(2.2465 0 -0.420935)
(2.16467 1.93846e-21 -0.405968)
(2.08565 -3.45591e-21 -0.391475)
(2.00922 0 -0.37742)
(1.93524 -6.10818e-21 -0.363787)
(1.86354 0 -0.350539)
(1.794 0 -0.337666)
(1.72643 1.83501e-20 -0.32513)
(1.66079 0 -0.312931)
(1.59685 -2.15011e-20 -0.301024)
(1.53462 2.27833e-20 -0.289418)
(1.47386 0 -0.278063)
(1.41462 2.49618e-20 -0.266982)
(1.35662 0 -0.256111)
(1.3 0 -0.24549)
(1.24442 0 -0.235041)
(1.19008 5.54177e-20 -0.224826)
(1.13658 5.62543e-20 -0.214742)
(1.08424 2.83474e-23 -0.204882)
(1.03253 -1.1479e-19 -0.195114)
(0.981941 2.48389e-23 -0.185566)
(0.931761 0 -0.176068)
(0.882702 0 -0.166795)
(0.833839 -1.15556e-19 -0.157529)
(0.786136 3.78584e-23 -0.148503)
(0.738418 0 -0.139438)
(0.69195 0 -0.13064)
(0.645261 -1.12508e-19 -0.121757)
(0.599965 2.85132e-23 -0.113177)
(0.554257 2.65373e-23 -0.10447)
(0.510137 0 -0.0961135)
(0.465456 0 -0.087592)
(0.422586 -2.09548e-19 -0.079477)
(0.379109 2.05609e-19 -0.0711764)
(0.337619 0 -0.0633317)
(0.295724 0 -0.0553253)
(0.255731 0 -0.047777)
(0.216117 0 -0.0401999)
(0.177591 0 -0.0329411)
(0.141295 0 -0.026007)
(0.104541 0 -0.0190555)
(0.0708594 0 -0.0127443)
(0.0427365 -6.53495e-19 -0.0071292)
(-0.00605827 -3.15478e-19 0.00142801)
(0.0159631 -3.06896e-19 -0.00170841)
(-0.110211 2.9181e-19 0.021269)
(0.0194121 -5.77023e-19 -0.00339546)
(-0.180871 -2.6753e-19 0.0366835)
(-0.0626429 -2.68042e-19 0.00917562)
(-0.0965552 0 0.0243307)
(-0.383388 0 0.0660035)
(0.305622 0 -0.0508029)
(-0.922078 0 0.175427)
(0.587298 -4.88272e-19 -0.118145)
(-0.747742 0 0.157948)
(-0.116369 0 0.00598659)
(0.0304252 3.50205e-19 0.0140477)
(-1.30651 0 0.238462)
(0.797339 -7.77036e-19 -0.147946)
(-1.88374 5.25024e-19 0.361988)
(1.0913 0 -0.216711)
(-1.63943 0 0.325455)
(0.661738 0 -0.148546)
(-0.470907 4.39558e-19 0.13648)
(-2.41083 0 0.433636)
(1.42876 -6.39107e-19 -0.278962)
(-2.45983 8.65145e-23 0.493823)
(0.326403 -1.1064e-18 -0.0910032)
(-0.562505 -1.74511e-18 0.101755)
(0.801151 0 -0.162724)
(0.0285749 7.59281e-19 0.0262913)
(-1.5478 7.95991e-19 0.283032)
(1.16508 8.53886e-19 -0.242931)
(-0.129549 0 0.0452425)
(-0.374751 6.66089e-19 0.067605)
(0.311204 0 -0.0682174)
(32.3837 0 2.95114)
(32.9495 0 2.76481)
(32.3961 1.22586e-20 1.72047)
(30.7539 0 0.519631)
(28.5024 -1.23036e-20 -0.485015)
(26.0884 2.50272e-20 -1.20747)
(23.7713 0 -1.67015)
(21.6671 -2.18506e-20 -1.93403)
(19.8092 2.09519e-20 -2.06307)
(18.1881 1.89503e-20 -2.10728)
(16.7761 1.78121e-20 -2.10045)
(15.5423 -1.6192e-20 -2.06383)
(14.4581 1.50755e-20 -2.01037)
(13.4992 -2.74882e-20 -1.94789)
(12.6456 0 -1.8811)
(11.8811 -2.32987e-20 -1.81287)
(11.1923 0 -1.74495)
(10.5684 0 -1.67838)
(10.0005 0 -1.61378)
(9.48121 1.64012e-20 -1.55148)
(9.00433 -3.42457e-23 -1.49166)
(8.56475 -2.60651e-23 -1.43435)
(8.1581 1.2462e-20 -1.37956)
(7.7807 0 -1.32721)
(7.42937 0 -1.27721)
(7.10141 0 -1.22947)
(6.79447 3.36602e-20 -1.18387)
(6.50649 -6.09633e-24 -1.14031)
(6.2357 0 -1.09866)
(5.98054 0 -1.05883)
(5.73961 0 -1.02071)
(5.51171 0 -0.9842)
(5.29573 1.68909e-20 -0.949203)
(5.09072 0 -0.915633)
(4.89581 -1.28031e-20 -0.883406)
(4.71021 0 -0.852444)
(4.53322 0 -0.822674)
(4.36421 -7.7749e-21 -0.794025)
(4.2026 0 -0.766434)
(4.04787 0 -0.739839)
(3.89953 3.81807e-21 -0.714185)
(3.75715 -5.40652e-21 -0.689415)
(3.62032 0 -0.665483)
(3.48868 -1.4803e-21 -0.642336)
(3.36189 0 -0.619936)
(3.23961 -3.64318e-21 -0.598234)
(3.12159 1.8804e-23 -0.577198)
(3.00751 0 -0.556781)
(2.89717 0 -0.53696)
(2.79028 6.80954e-21 -0.517686)
(2.68669 1.55563e-20 -0.498947)
(2.5861 -3.46253e-20 -0.480687)
(2.48842 0 -0.462909)
(2.39335 -2.02487e-20 -0.445549)
(2.30087 -2.15066e-20 -0.428623)
(2.21064 -2.25669e-20 -0.412056)
(2.12272 -2.35161e-20 -0.395884)
(2.0367 0 -0.380015)
(1.95277 0 -0.364509)
(1.87042 -5.12604e-20 -0.34925)
(1.78997 -1.04516e-19 -0.334331)
(1.7108 -5.30573e-20 -0.319602)
(1.6334 3.04151e-23 -0.305199)
(1.55696 5.41065e-20 -0.290928)
(1.48221 5.43993e-20 -0.276978)
(1.40812 0 -0.263099)
(1.33569 0 -0.249549)
(1.2636 1.08897e-19 -0.236008)
(1.19322 2.16895e-19 -0.222815)
(1.12287 0 -0.209567)
(1.05434 1.06937e-19 -0.196703)
(0.985538 1.05898e-19 -0.183717)
(0.918746 1.0476e-19 -0.17117)
(0.851403 2.06764e-19 -0.158435)
(0.786331 0 -0.146209)
(0.720489 0 -0.133738)
(0.657225 1.97189e-19 -0.121857)
(0.593116 -3.86856e-19 -0.109698)
(0.531829 -1.89593e-19 -0.098205)
(0.469969 0 -0.0864584)
(0.410822 0 -0.0753932)
(0.352183 0 -0.0642461)
(0.295145 0 -0.0536036)
(0.241194 0 -0.0433642)
(0.186642 0 -0.0331374)
(0.136647 -3.16391e-19 -0.0238981)
(0.0935274 3.63196e-23 -0.0152293)
(0.0242777 2.96217e-19 -0.00366641)
(0.0479035 0 -0.00587027)
(-0.125001 2.73886e-19 0.0244402)
(0.0467673 2.70812e-19 -0.00767242)
(-0.232601 0 0.0486358)
(-0.0640369 -2.51456e-19 0.00736673)
(-0.131444 -4.67219e-19 0.0370184)
(-0.49566 0 0.0806336)
(0.396815 0 -0.0599103)
(-1.24823 0 0.234827)
(0.814302 -4.57828e-19 -0.166147)
(-1.05868 0 0.230982)
(-0.0800834 0 -0.0154409)
(-0.0143512 3.2843e-19 0.0423858)
(-1.72539 -3.3249e-19 0.307418)
(1.03408 0 -0.186672)
(-2.60664 0 0.499178)
(1.50445 0 -0.302317)
(-2.32426 0 0.465352)
(1.03518 0 -0.239573)
(-0.736681 2.29141e-22 0.232095)
(-3.07829 0 0.535905)
(1.83907 5.98056e-19 -0.358175)
(-3.49134 -7.29896e-19 0.708149)
(0.647034 0 -0.179949)
(-0.809194 5.12045e-23 0.144468)
(1.13976 0 -0.236007)
(-0.027851 2.48614e-22 0.067133)
(-1.98673 0 0.353496)
(1.6255 -7.98356e-19 -0.348376)
(-0.269069 0 0.0909772)
(-0.449047 6.2239e-19 0.076152)
(0.486888 0 -0.109935)
(32.4869 0 2.09871)
(33.2447 0 2.22437)
(33.5911 0 1.74932)
(33.2268 0 0.955457)
(32.2045 1.16137e-20 0.113929)
(30.7315 -8.99668e-22 -0.634885)
(29.0133 0 -1.23562)
(27.2085 2.0624e-20 -1.67915)
(25.4266 0 -1.98267)
(23.7337 -3.52737e-20 -2.17442)
(22.1621 0 -2.28299)
(20.7217 1.52864e-20 -2.33235)
(19.4101 0 -2.34079)
(18.2186 2.59532e-20 -2.32157)
(17.1359 -1.18241e-20 -2.28396)
(16.1506 2.18529e-20 -2.23442)
(15.2517 -2.00102e-20 -2.17738)
(14.4294 -1.83719e-20 -2.1159)
(13.6747 0 -2.05208)
(12.9802 -1.54873e-20 -1.98737)
(12.3391 -1.41536e-20 -1.92278)
(11.7455 -2.5796e-20 -1.85898)
(11.1944 -1.17675e-20 -1.79642)
(10.6815 0 -1.73541)
(10.2028 0 -1.67613)
(9.75515 0 -1.61868)
(9.33546 -1.58864e-20 -1.56312)
(8.94118 -1.43065e-20 -1.50946)
(8.57004 0 -1.45768)
(8.22 0 -1.40774)
(7.88928 1.02206e-20 -1.3596)
(7.57627 0 -1.3132)
(7.27953 1.30102e-24 -1.26846)
(6.99778 -1.39522e-20 -1.22534)
(6.72986 1.21018e-20 -1.18375)
(6.47472 0 -1.14363)
(6.23143 0 -1.10492)
(5.99912 7.33811e-21 -1.06754)
(5.77702 0 -1.03143)
(5.5644 0 -0.996541)
(5.36062 -3.60297e-21 -0.962801)
(5.16508 5.10162e-21 -0.930154)
(4.97724 0 -0.898548)
(4.79657 1.39664e-21 -0.867926)
(4.62263 0 -0.838244)
(4.45496 1.70913e-21 -0.809445)
(4.29318 3.06187e-21 -0.781494)
(4.1369 0 -0.754333)
(3.9858 5.39403e-21 -0.727938)
(3.8395 -6.42178e-21 -0.702245)
(3.69778 -2.93088e-20 -0.677245)
(3.56025 1.63102e-20 -0.652866)
(3.42678 -1.77531e-20 -0.629112)
(3.29694 2.53499e-23 -0.605904)
(3.17071 0 -0.583264)
(3.04761 2.12702e-20 -0.561094)
(2.92773 2.21626e-20 -0.539443)
(2.81052 -2.29131e-20 -0.518189)
(2.69621 2.35743e-20 -0.497416)
(2.58413 4.82946e-20 -0.476967)
(2.47468 4.92126e-20 -0.456969)
(2.36704 -4.99142e-20 -0.437222)
(2.26184 5.05164e-20 -0.417907)
(2.15803 0 -0.398767)
(2.05653 0 -0.380054)
(1.95599 5.13017e-20 -0.361434)
(1.85772 0 -0.343252)
(1.75999 0 -0.325079)
(1.66456 -1.02041e-19 -0.307373)
(1.56925 0 -0.289587)
(1.47637 -1.00612e-19 -0.272317)
(1.38319 -1.99208e-19 -0.254878)
(1.29268 0 -0.238024)
(1.20148 -9.72119e-20 -0.220913)
(1.11329 0 -0.204482)
(1.02411 0 -0.187713)
(0.938305 -1.85276e-19 -0.171735)
(0.851411 1.81781e-19 -0.155367)
(0.76821 3.8238e-23 -0.139899)
(0.684249 0 -0.12406)
(0.60385 0 -0.109157)
(0.524058 0 -0.0940834)
(0.446433 -1.61916e-19 -0.0797471)
(0.372716 1.57495e-19 -0.0658467)
(0.298295 0 -0.0520251)
(0.230016 5.93956e-19 -0.0395791)
(0.169495 2.88025e-19 -0.0273332)
(0.0788477 -5.55906e-19 -0.0129604)
(0.099706 -2.70331e-19 -0.0128261)
(-0.11795 -5.1383e-19 0.0233731)
(0.0893862 0 -0.0141249)
(-0.267446 0 0.0580267)
(-0.0488874 2.35781e-19 0.00191887)
(-0.159804 4.38025e-19 0.0506341)
(-0.581504 -4.22148e-19 0.0876729)
(0.473374 0 -0.0623055)
(-1.54196 0 0.285666)
(1.03004 4.28957e-19 -0.212695)
(-1.36627 2.92702e-19 0.307065)
(-0.000632758 0 -0.0503759)
(-0.0859877 -3.07582e-19 0.0837708)
(-2.07496 3.11341e-19 0.35769)
(1.21866 0 -0.210274)
(-3.29311 0 0.627483)
(1.88784 0 -0.383551)
(-3.01307 0 0.607124)
(1.45661 0 -0.347141)
(-1.02874 -3.85169e-19 0.348523)
(-3.55778 0 0.589918)
(2.13881 0 -0.412432)
(-4.50507 0 0.920427)
(1.05732 9.66386e-19 -0.298137)
(-1.07426 7.6314e-19 0.19052)
(1.48434 0 -0.313237)
(-0.107634 -6.6406e-19 0.123279)
(-2.31204 0 0.393543)
(2.0616 -7.46293e-19 -0.452901)
(-0.437687 0 0.149868)
(-0.477961 -5.81647e-19 0.071203)
(0.685782 0 -0.159402)
(32.5595 -4.98212e-21 1.48451)
(33.1429 -6.18411e-21 1.62451)
(33.6695 7.34301e-21 1.43375)
(33.8948 8.27493e-21 0.973025)
(33.7023 0 0.381366)
(33.1039 -9.9184e-21 -0.23426)
(32.1729 0 -0.808056)
(31.0004 1.74319e-20 -1.30302)
(29.675 1.66695e-20 -1.70376)
(28.2729 3.21553e-20 -2.01071)
(26.8535 -1.47978e-20 -2.23359)
(25.459 1.3811e-20 -2.38588)
(24.1164 0 -2.48152)
(22.8412 0 -2.53313)
(21.6409 1.11475e-20 -2.55132)
(20.5171 -1.14394e-22 -2.54462)
(19.4681 1.75823e-22 -2.51967)
(18.4906 1.35725e-22 -2.48153)
(17.58 0 -2.43404)
(16.7313 0 -2.38008)
(15.9398 0 -2.3218)
(15.2007 2.42389e-20 -2.26081)
(14.5095 1.10308e-20 -2.1983)
(13.8623 0 -2.13517)
(13.2553 0 -2.07207)
(12.685 1.6527e-20 -2.00949)
(12.1484 0 -1.94777)
(11.6428 0 -1.88718)
(11.1655 0 -1.82788)
(10.7144 0 -1.76999)
(10.2873 -6.45674e-24 -1.7136)
(9.88244 0 -1.65873)
(9.49811 -1.67191e-24 -1.60542)
(9.13278 1.31521e-20 -1.55365)
(8.78505 2.50631e-24 -1.50341)
(8.45365 0 -1.45467)
(8.13744 0 -1.4074)
(7.83535 0 -1.36155)
(7.54642 0 -1.31709)
(7.26976 0 -1.27396)
(7.00455 0 -1.23212)
(6.75003 0 -1.19152)
(6.50553 -3.02263e-21 -1.15211)
(6.27037 -1.35206e-21 -1.11383)
(6.04399 0 -1.07664)
(5.8258 1.57573e-21 -1.04049)
(5.61534 0 -1.00534)
(5.41206 0 -0.971134)
(5.21559 -1.01457e-20 -0.937841)
(5.02541 0 -0.905392)
(4.84126 1.37869e-20 -0.873779)
(4.66262 0 -0.842919)
(4.48931 3.34071e-20 -0.812823)
(4.3208 2.45725e-23 -0.783391)
(4.15703 0 -0.754658)
(3.99742 0 -0.726502)
(3.84204 0 -0.698989)
(3.69021 4.31118e-20 -0.671966)
(3.54219 -4.43533e-20 -0.64554)
(3.39713 -4.53774e-20 -0.619516)
(3.25555 -4.62407e-20 -0.594057)
(3.11638 9.38904e-20 -0.568907)
(2.98041 4.74653e-20 -0.544301)
(2.84632 0 -0.51991)
(2.71525 0 -0.496058)
(2.5855 -2.42356e-23 -0.472318)
(2.45869 0 -0.449132)
(2.33265 0 -0.425952)
(2.20959 -9.5852e-20 -0.403362)
(2.08674 0 -0.380665)
(1.96701 0 -0.358622)
(1.84695 1.87144e-19 -0.336355)
(1.73029 -9.25024e-20 -0.314832)
(1.6128 0 -0.292969)
(1.49909 0 -0.271971)
(1.38416 0 -0.250528)
(1.27347 1.74002e-19 -0.230093)
(1.16141 0 -0.209138)
(1.05395 3.34457e-19 -0.189336)
(0.945512 -1.63529e-19 -0.169022)
(0.841534 0 -0.149928)
(0.738215 0 -0.130539)
(0.637691 1.51939e-19 -0.112164)
(0.541839 -2.46829e-23 -0.0942122)
(0.445234 1.4359e-19 -0.0764446)
(0.356428 -2.78543e-19 -0.0604605)
(0.275863 2.70058e-19 -0.0441238)
(0.162576 2.60626e-19 -0.0270312)
(0.176029 2.53461e-19 -0.0232399)
(-0.0844737 3.87224e-23 0.0175833)
(0.151033 0 -0.0231695)
(-0.280971 -2.20582e-19 0.0641195)
(-0.0143111 0 -0.00742281)
(-0.177728 0 0.0645552)
(-0.637981 3.95474e-19 0.0869112)
(0.53843 0 -0.058405)
(-1.79663 0 0.326783)
(1.23048 0 -0.256606)
(-1.66271 -2.7406e-19 0.384318)
(0.117453 0 -0.0976059)
(-0.178968 -2.88164e-19 0.137487)
(-2.34805 0 0.388973)
(1.34995 0 -0.218516)
(-3.92761 0 0.742716)
(2.22887 0 -0.457653)
(-3.69501 0 0.747721)
(1.91099 -5.83127e-19 -0.468526)
(-1.33513 -3.6052e-19 0.48336)
(-3.84059 4.63305e-19 0.597654)
(2.32602 0 -0.436802)
(-5.46574 0 1.1217)
(1.52647 -1.80632e-18 -0.439505)
(-1.35796 0 0.241366)
(1.83145 8.23839e-19 -0.394119)
(-0.201721 0 0.192412)
(-2.51695 6.48639e-19 0.403964)
(2.46042 6.974e-19 -0.552845)
(-0.619478 0 0.217848)
(-0.463618 -5.43154e-19 0.0533033)
(0.902043 0 -0.215269)
(32.6145 4.6918e-21 1.03241)
(33.0256 1.14021e-20 1.11985)
(33.4717 -6.91672e-21 1.03716)
(33.8367 -7.80473e-22 0.774087)
(34.01 7.49471e-21 0.384084)
(33.9355 0 -0.0709184)
(33.6054 0 -0.541814)
(33.0399 -1.64146e-20 -0.992868)
(32.2744 -3.04916e-20 -1.40046)
(31.3513 -7.07635e-22 -1.75157)
(30.3142 1.39329e-20 -2.04169)
(29.2037 -1.30037e-20 -2.27218)
(28.0546 1.17617e-20 -2.44788)
(26.8951 0 -2.57537)
(25.7469 0 -2.66184)
(24.6253 -9.55394e-21 -2.71428)
(23.5408 3.49655e-20 -2.73908)
(22.4998 3.21847e-20 -2.74179)
(21.5059 0 -2.72713)
(20.5604 0 -2.69898)
(19.663 0 -2.66049)
(18.8126 -6.71977e-23 -2.61421)
(18.0075 -2.0721e-20 -2.56217)
(17.2454 9.41332e-21 -2.50596)
(16.5242 1.71103e-20 -2.44687)
(15.8414 -3.10741e-20 -2.38588)
(15.1945 1.4025e-20 -2.32379)
(14.5815 1.2642e-20 -2.26121)
(13.9999 1.13565e-20 -2.19861)
(13.4478 0 -2.13637)
(12.9232 -9.06587e-21 -2.07476)
(12.4242 8.02544e-21 -2.01401)
(11.9492 -7.07708e-21 -1.95427)
(11.4966 -1.23757e-20 -1.89567)
(11.0648 -2.14802e-20 -1.83827)
(10.6526 0 -1.78215)
(10.2587 0 -1.72733)
(9.88178 -6.52943e-21 -1.67382)
(9.52091 0 -1.62164)
(9.17502 4.23395e-21 -1.57076)
(8.84318 3.21978e-21 -1.52118)
(8.52449 0 -1.47287)
(8.21818 5.70452e-21 -1.4258)
(7.92344 1.27237e-21 -1.37994)
(7.63962 0 -1.33525)
(7.36599 -1.4827e-21 -1.29169)
(7.10201 -2.66729e-21 -1.24924)
(6.84701 0 -1.20782)
(6.60055 9.51598e-21 -1.16743)
(6.362 -5.64793e-21 -1.128)
(6.13103 -1.29151e-20 -1.08952)
(5.907 0 -1.0519)
(5.6897 -2.48557e-23 -1.01517)
(5.47847 3.3691e-20 -0.979195)
(5.27324 0 -0.944043)
(5.07327 0 -0.90956)
(4.87867 -1.9556e-20 -0.875838)
(4.68858 -2.02572e-20 -0.842687)
(4.50332 4.1661e-20 -0.810249)
(4.32185 4.26558e-20 -0.778281)
(4.14478 4.34636e-20 -0.74699)
(3.97081 -4.41072e-20 -0.716062)
(3.80089 -8.91842e-20 -0.685791)
(3.63339 0 -0.655767)
(3.46971 0 -0.626399)
(3.30775 -9.0584e-20 -0.597155)
(3.1495 0 -0.568587)
(2.99228 0 -0.540012)
(2.83877 9.00257e-20 -0.512161)
(2.6856 0 -0.484163)
(2.53629 -8.86982e-20 -0.456968)
(2.38665 -3.20394e-23 -0.42948)
(2.24117 8.68422e-20 -0.402908)
(2.09472 0 -0.375897)
(1.95288 0 -0.349952)
(1.80958 0 -0.323432)
(1.6714 1.63194e-19 -0.298159)
(1.53155 0 -0.272208)
(1.39726 -1.56869e-19 -0.247691)
(1.26172 3.06761e-19 -0.222485)
(1.13159 0 -0.198823)
(1.0021 0 -0.174693)
(0.876113 0 -0.151906)
(0.755476 -2.43612e-23 -0.129472)
(0.634101 -1.34612e-19 -0.107379)
(0.522227 -2.61016e-19 -0.0874831)
(0.418714 -2.5311e-19 -0.0665072)
(0.281186 2.44168e-19 -0.0467559)
(0.282363 0 -0.0380296)
(-0.0192806 2.25595e-19 0.00641136)
(0.236288 0 -0.0354072)
(-0.268088 2.06611e-19 0.0659106)
(0.0431822 0 -0.021102)
(-0.180553 0 0.0779921)
(-0.66184 0 0.0778259)
(0.596428 -3.77301e-19 -0.0486508)
(-2.00548 -3.00993e-19 0.356497)
(1.41286 0 -0.296861)
(-1.93959 2.5644e-19 0.460629)
(0.267522 -3.3712e-19 -0.155796)
(-0.286433 2.69627e-19 0.202444)
(-2.53971 -2.71992e-19 0.399922)
(1.43056 0 -0.210433)
(-4.49342 0 0.840529)
(2.51594 0 -0.521784)
(-4.35694 0 0.883526)
(2.3777 5.45277e-19 -0.600491)
(-1.64562 -3.20391e-23 0.634039)
(-3.92896 -8.65619e-19 0.558489)
(2.41114 0 -0.428422)
(-6.33345 0 1.3021)
(2.00777 8.43842e-19 -0.595976)
(-1.6576 0 0.297324)
(2.17614 -7.69881e-19 -0.478208)
(-0.302426 0 0.27287)
(-2.59906 -1.21164e-18 0.382432)
(2.81287 0 -0.645116)
(-0.796543 0 0.291653)
(-0.412683 5.07392e-19 0.0223066)
(1.12843 0 -0.276308)
(32.6394 0 0.679241)
(32.9409 -5.24701e-21 0.72287)
(33.2778 0 0.673651)
(33.6082 -6.59898e-21 0.510843)
(33.869 -1.34544e-20 0.249294)
(34.0093 0 -0.079275)
(34.0007 6.71283e-21 -0.443453)
(33.8318 0 -0.817146)
(33.5032 8.99222e-22 -1.18016)
(33.0244 -2.58555e-20 -1.51801)
(32.4115 0 -1.8214)
(31.6848 0 -2.08542)
(30.8664 -1.10625e-20 -2.30848)
(29.9788 0 -2.49133)
(29.0429 0 -2.63625)
(28.0777 0 -2.74652)
(27.0992 -1.6334e-20 -2.8259)
(26.121 -1.50506e-20 -2.87836)
(25.1535 -1.36594e-20 -2.90777)
(24.2047 0 -2.91775)
(23.2803 0 -2.91159)
(22.3845 -1.06483e-20 -2.8922)
(21.5198 9.71965e-21 -2.86208)
(20.6876 -8.85349e-21 -2.82338)
(19.8884 -1.60926e-20 -2.7779)
(19.1221 2.91097e-20 -2.72715)
(18.3884 -5.41623e-23 -2.67238)
(17.6862 -1.18897e-20 -2.61463)
(17.0146 -1.06806e-20 -2.55473)
(16.3724 0 -2.49338)
(15.7582 0 -2.43115)
(15.1708 -7.54738e-21 -2.3685)
(14.6088 0 -2.30579)
(14.071 1.1638e-20 -2.24333)
(13.556 1.00984e-20 -2.18134)
(13.0627 -8.66851e-21 -2.12002)
(12.5898 0 -2.05951)
(12.1362 6.13947e-21 -1.99993)
(11.701 5.01853e-21 -1.94135)
(11.2829 3.64833e-24 -1.88383)
(10.8812 -6.05904e-21 -1.82742)
(10.4948 0 -1.77214)
(10.1229 -2.68857e-21 -1.71802)
(9.7646 0 -1.66503)
(9.41927 0 -1.61319)
(9.08607 0 -1.56246)
(8.76439 1.37416e-23 -1.51286)
(8.45349 0 -1.46432)
(8.15286 -4.46484e-21 -1.41686)
(7.86177 1.06024e-20 -1.3704)
(7.57984 1.21365e-20 -1.32497)
(7.30634 0 -1.28046)
(7.04102 -1.47267e-20 -1.23691)
(6.7831 -3.1609e-20 -1.1942)
(6.5325 0 -1.15239)
(6.28835 0 -1.11133)
(6.05076 1.837e-20 -1.07112)
(5.81872 1.89903e-20 -1.03155)
(5.59262 -1.95558e-20 -0.99279)
(5.37119 -3.99938e-20 -0.954553)
(5.15517 0 -0.917099)
(4.94299 0 -0.880046)
(4.7358 2.84224e-23 -0.84376)
(4.53161 -4.21606e-20 -0.807741)
(4.33212 0 -0.772496)
(4.13479 4.25037e-20 -0.737371)
(3.94201 0 -0.703051)
(3.75054 0 -0.668695)
(3.5636 0 -0.635204)
(3.37712 0 -0.601509)
(3.19533 3.40145e-23 -0.568777)
(3.01317 -3.17511e-23 -0.535663)
(2.83602 -8.14072e-20 -0.503653)
(2.65774 0 -0.471079)
(2.48495 -7.91504e-20 -0.439791)
(2.31039 0 -0.407769)
(2.14194 -1.53027e-19 -0.377257)
(1.97142 1.50017e-19 -0.345874)
(1.8075 -1.46993e-19 -0.316239)
(1.64196 -1.43763e-19 -0.285692)
(1.48287 0 -0.257056)
(1.32429 1.3694e-19 -0.227722)
(1.17 0 -0.200123)
(1.02164 -1.29775e-19 -0.172733)
(0.872615 -1.26076e-19 -0.145903)
(0.73481 2.4452e-19 -0.12167)
(0.605156 0 -0.0954892)
(0.4414 -4.57339e-19 -0.0730452)
(0.425217 0 -0.0580883)
(0.0837522 2.11173e-19 -0.0110073)
(0.350692 0 -0.0517499)
(-0.222904 1.93371e-19 0.0625007)
(0.127953 0 -0.0394465)
(-0.162823 3.59717e-19 0.0899838)
(-0.649319 -3.46202e-19 0.0598114)
(0.653098 3.53078e-19 -0.0336988)
(-2.16148 2.81641e-19 0.373483)
(1.57636 0 -0.332717)
(-2.18782 -4.79754e-19 0.53369)
(0.441281 6.30523e-19 -0.223564)
(-0.400605 0 0.277503)
(-2.64745 2.54379e-19 0.390307)
(1.46697 0 -0.186399)
(-4.9728 0 0.91938)
(2.74012 -5.55955e-19 -0.573457)
(-4.98264 0 1.01033)
(2.83111 0 -0.738752)
(-1.953 3.15112e-19 0.798077)
(-3.83758 8.0771e-19 0.476143)
(2.41612 4.58776e-19 -0.393639)
(-7.06319 0 1.45148)
(2.44428 0 -0.75621)
(-1.9669 0 0.357149)
(2.51095 0 -0.564684)
(-0.404359 5.42296e-19 0.363056)
(-2.55995 5.65715e-19 0.329806)
(3.11519 0 -0.727817)
(-0.949768 0 0.367293)
(-0.335515 0 -0.020239)
(1.35701 0 -0.341041)
(32.6388 4.20182e-21 0.390932)
(32.8708 0 0.407201)
(33.1265 4.91848e-21 0.366846)
(33.3913 0 0.253838)
(33.6342 6.01821e-21 0.0687284)
(33.8238 0 -0.173786)
(33.9371 -6.30921e-21 -0.454576)
(33.9593 1.15723e-20 -0.755709)
(33.8809 2.36258e-20 -1.06203)
(33.6974 7.27195e-22 -1.36154)
(33.4084 0 -1.64524)
(33.0173 0 -1.90692)
(32.5307 0 -2.14272)
(31.9577 0 -2.35055)
(31.3094 0 -2.52969)
(30.5978 0 -2.6804)
(29.8353 1.47203e-20 -2.80369)
(29.0342 -1.36425e-20 -2.90115)
(28.206 1.28344e-20 -2.97477)
(27.3613 0 -3.02674)
(26.5091 0 -3.05941)
(25.6573 9.80528e-21 -3.0751)
(24.8123 8.97369e-21 -3.07605)
(23.9793 8.19249e-21 -3.06437)
(23.1624 0 -3.04198)
(22.3644 -1.36427e-20 -3.01063)
(21.5877 -2.46108e-20 -2.97184)
(20.8336 1.10729e-20 -2.92697)
(20.1031 0 -2.87718)
(19.3966 0 -2.82348)
(18.7143 0 -2.76671)
(18.0559 7.05611e-21 -2.70763)
(17.4211 0 -2.64682)
(16.8094 0 -2.58483)
(16.22 9.46084e-21 -2.52208)
(15.6523 8.14325e-21 -2.45893)
(15.1056 0 -2.39569)
(14.5789 5.76313e-21 -2.3326)
(14.0714 -9.42645e-21 -2.26987)
(13.5824 -3.7426e-21 -2.20765)
(13.111 2.84775e-21 -2.14608)
(12.6564 0 -2.08526)
(12.2178 0 -2.02528)
(11.7944 0 -1.96619)
(11.3855 -1.10286e-22 -1.90804)
(10.9903 0 -1.85086)
(10.6082 2.34133e-21 -1.79467)
(10.2385 3.29284e-21 -1.73946)
(9.8806 0 -1.68528)
(9.53372 -4.97121e-21 -1.63205)
(9.19749 0 -1.57983)
(8.87108 0 -1.52852)
(8.55427 -1.37803e-20 -1.4782)
(8.24614 2.17185e-23 -1.42873)
(7.94665 1.57103e-20 -1.38021)
(7.65476 0 -1.33245)
(7.37068 0 -1.28561)
(7.09318 -1.78223e-20 -1.23943)
(6.82275 0 -1.19414)
(6.5579 3.7529e-20 -1.1494)
(6.29953 0 -1.10552)
(6.04574 0 -1.06206)
(5.79795 7.84534e-20 -1.01947)
(5.55376 7.9076e-20 -0.977143)
(5.31522 3.97288e-20 -0.9357)
(5.07929 0 -0.894352)
(4.8488 0 -0.853936)
(4.61991 3.97278e-20 -0.813433)
(4.39644 7.91141e-20 -0.773942)
(4.17354 0 -0.734164)
(3.95621 7.79963e-20 -0.695521)
(3.73846 -7.72023e-20 -0.656378)
(3.52663 7.63139e-20 -0.61854)
(3.31343 -7.52573e-20 -0.579981)
(3.1067 7.41853e-20 -0.542952)
(2.89783 0 -0.504988)
(2.6961 0 -0.468827)
(2.49182 -1.40569e-19 -0.431553)
(2.29525 2.75407e-19 -0.39638)
(2.09658 0 -0.360015)
(1.90545 0 -0.32598)