/*--------------------------------*- C++ -*----------------------------------*\
| =========                 |                                                 |
| \\      /  F ield         | OpenFOAM: The Open Source CFD Toolbox           |
|  \\    /   O peration     | Version:  2412                                  |
|   \\  /    A nd           | Website:  www.openfoam.com                      |
|    \\/     M anipulation  |                                                 |
\*---------------------------------------------------------------------------*/
FoamFile
{
    version     2.0;
    format      ascii;
    arch        "LSB;label=32;scalar=64";
    class       surfaceScalarField;
    location    "1.1";
    object      phi;
}
// * * * * * * * * * * * * * * * * * * * * * * * * * * * * * * * * * * * * * //

dimensions      [0 3 -1 0 0 0 0];

oriented        oriented;

internalField   nonuniform List<scalar> 
24930
(
0.0179701
0.0127617
-0.0307363
0.0106036
0.00736653
0.00695188
0.00365169
0.00517535
0.00177654
0.00420305
0.000972301
0.00358
0.000623052
0.00313398
0.000446021
0.00279441
0.000339573
0.00252518
0.000269226
0.00230524
0.00021995
0.00212141
0.000183831
0.00196496
0.000156446
0.00182985
0.000135112
0.00171172
0.000118126
0.00160737
0.000104352
0.00151436
9.30061e-05
0.00143083
8.35338e-05
0.00135529
7.55322e-05
0.00128659
6.87028e-05
0.00122376
6.28202e-05
0.00116605
5.77117e-05
0.00111281
5.32428e-05
0.0010635
4.93079e-05
0.00101767
4.58224e-05
0.000974953
4.27185e-05
0.000935011
3.99408e-05
0.000897566
3.74439e-05
0.000862375
3.51902e-05
0.000829226
3.31483e-05
0.000797934
3.1292e-05
0.000768334
2.95991e-05
0.000740283
2.80508e-05
0.000713652
2.6631e-05
0.000688326
2.5326e-05
0.000664202
2.41237e-05
0.000641188
2.30141e-05
0.0006192
2.1988e-05
0.000598162
2.10378e-05
0.000578006
2.01563e-05
0.000558668
1.93379e-05
0.000540091
1.8577e-05
0.000522222
1.78692e-05
0.000505012
1.721e-05
0.000488416
1.65961e-05
0.000472392
1.60239e-05
0.000456901
1.54909e-05
0.000441907
1.4994e-05
0.000427375
1.45314e-05
0.000413274
1.41007e-05
0.000399574
1.37002e-05
0.000386245
1.33285e-05
0.000373262
1.29833e-05
0.000360597
1.26647e-05
0.000348228
1.23694e-05
0.000336128
1.20995e-05
0.000324279
1.18495e-05
0.000312654
1.16248e-05
0.000301238
1.14162e-05
0.000290005
1.12341e-05
0.000278942
1.10635e-05
0.00026802
1.09219e-05
0.000257235
1.07859e-05
0.000246552
1.06832e-05
0.000235974
1.05787e-05
0.00022546
1.05139e-05
0.000215023
1.04373e-05
0.000204614
1.04095e-05
0.000194258
1.03566e-05
0.000183894
1.03645e-05
0.000173564
1.03299e-05
0.000163194
1.03714e-05
0.000152847
1.03475e-05
0.000142428
1.04191e-05
0.000132031
1.03964e-05
0.000121539
1.04922e-05
0.000111078
1.04606e-05
0.000100508
1.05685e-05
8.9985e-05
1.05221e-05
7.93697e-05
1.06142e-05
6.88022e-05
1.05667e-05
5.82228e-05
1.05787e-05
4.76293e-05
1.05936e-05
3.72321e-05
1.03982e-05
2.66415e-05
1.05921e-05
1.65768e-05
1.00662e-05
6.18936e-06
1.03886e-05
-3.69856e-06
9.8898e-06
-1.25118e-05
8.81503e-06
-2.46464e-05
1.21372e-05
-2.88013e-05
4.15586e-06
-4.61987e-05
1.7399e-05
-4.43404e-05
-1.85699e-06
-5.30304e-05
8.68318e-06
-8.481e-05
3.17907e-05
-4.63406e-05
-3.8476e-05
-0.000113151
6.68098e-05
-5.76491e-05
-5.55084e-05
-0.000122145
6.44937e-05
-0.000118812
-3.2915e-06
-3.76371e-05
-8.12042e-05
-0.000257033
0.00021942
-3.63355e-05
-0.000220701
-0.000285258
0.000248908
-0.000167556
-0.000117689
-0.000153157
-1.44458e-05
-0.00036669
0.000213566
-9.22939e-06
-0.000357499
-0.000465706
0.000456482
-0.000141327
-0.000324353
-0.000299178
0.000157816
-0.000534375
0.000235238
-3.88177e-05
-0.00049557
-0.000248385
0.000209539
-0.000341666
9.33163e-05
-0.000245912
-9.57486e-05
-4.60044e-05
-0.000199938
-0.000402497
0.000356496
-0.000483345
8.0888e-05
-0.000135458
-0.00034789
-0.000108435
0.033683
0.0163302
-0.0372515
0.0277438
0.0133057
0.0221893
0.00920619
0.017914
0.00605191
0.0148672
0.00401913
0.0127063
0.00278395
0.0111189
0.00203336
0.0099017
0.0015568
0.00893436
0.00123657
0.00814393
0.00101038
0.00748364
0.000844117
0.0069222
0.000717892
0.0064378
0.000619506
0.00601478
0.000541145
0.00564154
0.000477595
0.00530928
0.000425255
0.00501125
0.000381568
0.0047421
0.000344676
0.0044976
0.000313202
0.00427431
0.000286105
0.00406943
0.000262585
0.00388065
0.000242022
0.00370603
0.000223926
0.00354394
0.000207906
0.00339301
0.000193648
0.00325205
0.000180895
0.00312006
0.000169438
0.00299614
0.000159103
0.00287955
0.000149744
0.0027696
0.000141239
0.00266571
0.000133488
0.00256736
0.000126402
0.00247408
0.000119907
0.00238547
0.000113939
0.00230115
0.000108444
0.00222079
0.000103373
0.00214409
9.86863e-05
0.00207078
9.43468e-05
0.00200062
9.03228e-05
0.00193337
8.65872e-05
0.00186883
8.31148e-05
0.00180681
7.98849e-05
0.00174715
7.68774e-05
0.00168966
7.40765e-05
0.00163422
7.1466e-05
0.00158068
6.90335e-05
0.00152891
6.67661e-05
0.00147878
6.46541e-05
0.0014302
6.26875e-05
0.00138304
6.08577e-05
0.00133721
5.9158e-05
0.00129261
5.75793e-05
0.00124916
5.61196e-05
0.00120676
5.47669e-05
0.00116534
5.35259e-05
0.00112481
5.23789e-05
0.00108509
5.13401e-05
0.00104613
5.03818e-05
0.00100783
4.9532e-05
0.000970145
4.87475e-05
0.000932992
4.80761e-05
0.000896327
4.74517e-05
0.000860061
4.69504e-05
0.000824167
4.64732e-05
0.000788546
4.61355e-05
0.000753193
4.57919e-05
0.000717992
4.56114e-05
0.000682964
4.53853e-05
0.000647975
4.53542e-05
0.000613081
4.52248e-05
0.000578121
4.53321e-05
0.0005432
4.5269e-05
0.00050812
4.55003e-05
0.000473057
4.54606e-05
0.000437753
4.57964e-05
0.00040249
4.57243e-05
0.000366924
4.61336e-05
0.000331475
4.59702e-05
0.000295708
4.63801e-05
0.000260148
4.61261e-05
0.000224404
4.63214e-05
0.000188786
4.62102e-05
0.000153589
4.55949e-05
0.000117812
4.63687e-05
8.40359e-05
4.38422e-05
4.83523e-05
4.6073e-05
1.57778e-05
4.24649e-05
-1.62943e-05
4.08884e-05
-5.41647e-05
5.00082e-05
-7.16365e-05
2.16301e-05
-0.00012982
7.55834e-05
-0.000118411
-1.32659e-05
-0.000165558
5.58353e-05
-0.000239397
0.000105625
-0.000147785
-0.000130082
-0.000340875
0.0002599
-0.000170855
-0.000225521
-0.000407498
0.000301133
-0.000328935
-8.18604e-05
-0.000155538
-0.000254581
-0.00073769
0.000801586
-0.000122176
-0.000836209
-0.000892474
0.0010192
-0.000489917
-0.000520249
-0.000574663
7.03233e-05
-0.00104737
0.000686253
-5.21313e-05
-0.00135273
-0.0013858
0.00179014
-0.000429369
-0.00128079
-0.00103949
0.000767947
-0.00157949
0.000775216
-0.000134901
-0.00194016
-0.000810193
0.00088484
-0.00105581
0.000338911
-0.000695546
-0.000456012
-0.000183934
-0.000711536
-0.00126826
0.00144082
-0.0014333
0.000245878
-0.000363437
-0.00141775
-0.000417116
0.0414534
0.0160272
-0.0411505
0.0391614
0.0155977
0.0352295
0.0131381
0.0309415
0.0103399
0.0270256
0.00793501
0.023736
0.00607355
0.0210613
0.00470809
0.0188924
0.0037257
0.0171146
0.00301435
0.0156353
0.00248967
0.0143856
0.00209389
0.013315
0.00178848
0.0123866
0.00154783
0.0115731
0.00135468
0.0108536
0.00119715
0.010212
0.00106686
0.00963576
0.000957755
0.00911504
0.000865394
0.00864179
0.000786444
0.00820953
0.00071837
0.00781289
0.000659216
0.00744746
0.000607451
0.00710952
0.000561865
0.00679593
0.000521488
0.00650404
0.000485537
0.00623156
0.000453373
0.00597653
0.00042447
0.00573723
0.000398394
0.0055122
0.000374779
0.00530012
0.00035332
0.00509984
0.00033376
0.00491036
0.00031588
0.00473078
0.000299492
0.00456028
0.000284436
0.00439815
0.000270572
0.00424374
0.000257782
0.00409647
0.000245958
0.00395581
0.000235012
0.00382127
0.000224862
0.00369241
0.00021544
0.00356885
0.000206682
0.0034502
0.000198535
0.00333612
0.000190949
0.00322632
0.000183883
0.00312049
0.000177297
0.00301836
0.000171159
0.00291969
0.000165437
0.00282424
0.000160105
0.00273179
0.000155139
0.00264213
0.000150516
0.00255507
0.000146219
0.00247042
0.000142226
0.00238801
0.00013853
0.00230767
0.000135105
0.00222924
0.000131956
0.00215257
0.000129046
0.00207751
0.0001264
0.00200393
0.000123965
0.00193168
0.000121788
0.00186063
0.00011979
0.00179066
0.000118054
0.00172165
0.00011646
0.00165346
0.000115143
0.00158601
0.000113923
0.00151914
0.000113007
0.0014528
0.00011213
0.00138682
0.000111595
0.00132118
0.000111026
0.00125568
0.000110852
0.00119037
0.000110541
0.001125
0.000110699
0.00105969
0.000110578
0.000994161
0.000111033
0.000928627
0.000110996
0.000862714
0.000111709
0.00079683
0.000111608
0.000730433
0.00011253
0.000664218
0.000112185
0.000597402
0.000113194
0.00053099
0.000112537
0.000464117
0.000113192
0.000397602
0.000112724
0.00033163
0.000111567
0.000264711
0.000113288
0.000201443
0.000107112
0.000134097
0.000113421
7.32449e-05
0.000103318
1.15743e-05
0.000102561
-5.66729e-05
0.000118258
-9.33097e-05
5.82696e-05
-0.000199265
0.000181541
-0.000178909
-3.362e-05
-0.000278417
0.000155345
-0.00038908
0.00021629
-0.000253349
-0.000265814
-0.000580418
0.000586967
-0.000290633
-0.000515306
-0.000730078
0.000740582
-0.000545197
-0.000266737
-0.00031134
-0.000488436
-0.00123884
0.00172908
-0.000214033
-0.00186102
-0.00156804
0.00237321
-0.000839276
-0.00124901
-0.00111052
0.000341554
-0.00176327
0.001339
-0.000117044
-0.00299897
-0.00237457
0.00404766
-0.000717374
-0.00293799
-0.00194083
0.00199141
-0.00268017
0.00151456
-0.000248784
-0.00437155
-0.00147995
0.00211601
-0.00180511
0.000664073
-0.00114687
-0.00111426
-0.000371127
-0.00148728
-0.0022356
0.00330529
-0.00239748
0.00040782
-0.00054597
-0.00326926
-0.000916299
0.0459158
0.0147283
-0.0446168
0.0459974
0.0155161
0.0444168
0.0147187
0.0416914
0.0130653
0.0384463
0.0111801
0.0351403
0.00937955
0.032041
0.0078074
0.0292627
0.00650395
0.0268244
0.00545273
0.0246997
0.00461429
0.0228477
0.00394592
0.0212263
0.00340986
0.0197984
0.00297577
0.0185326
0.00262041
0.0174035
0.00232628
0.0163901
0.00208023
0.0154755
0.00187238
0.0146457
0.00169519
0.0138893
0.00154287
0.0131967
0.00141094
0.01256
0.00129587
0.0119726
0.00119486
0.0114288
0.00110569
0.0109238
0.00102653
0.0104534
0.000955931
0.0100141
0.000892672
0.00960277
0.000835755
0.00921682
0.000784348
0.00885384
0.000737752
0.00851178
0.000695379
0.00818881
0.000656731
0.00788331
0.000621381
0.00759383
0.000588966
0.0073191
0.000559173
0.00705794
0.00053173
0.00680932
0.000506403
0.00657229
0.000482985
0.006346
0.000461299
0.00612968
0.000441186
0.00592261
0.00042251
0.00572415
0.000405147
0.00553369
0.000388992
0.00535069
0.000373946
0.00517465
0.000359928
0.00500509
0.000346859
0.00484157
0.000334674
0.0046837
0.000323312
0.00453108
0.000312721
0.00438337
0.000302851
0.00424022
0.00029366
0.00410133
0.000285112
0.00396639
0.000277166
0.00383512
0.000269802
0.00370725
0.000262975
0.00358252
0.000256687
0.00346068
0.000250877
0.00334151
0.000245578
0.00322477
0.000240704
0.00311023
0.000236325
0.00299771
0.000232313
0.00288697
0.000228797
0.00277784
0.000225586
0.0026701
0.000222886
0.00256361
0.000220419
0.00245812
0.000218498
0.00235353
0.000216716
0.00224959
0.000215537
0.00214624
0.000214374
0.0020432
0.000213892
0.00194048
0.000213261
0.00183776
0.000213421
0.00173515
0.000213192
0.00163226
0.000213927
0.00152935
0.000213901
0.00142592
0.000215145
0.0013225
0.000215026
0.00121832
0.00021671
0.00111438
0.00021612
0.0010095
0.000218072
0.000905242
0.000216797
0.000800155
0.000218278
0.000695708
0.000217171
0.000591832
0.000215442
0.000486692
0.000218428
0.000386896
0.000206909
0.000280683
0.000219634
0.000185007
0.000198996
8.72191e-05
0.000200351
-1.82471e-05
0.000223725
-8.16473e-05
0.000121673
-0.000242343
0.000342238
-0.000216705
-5.9255e-05
-0.000381162
0.000319805
-0.000526838
0.000361963
-0.000355604
-0.000437046
-0.000826241
0.0010576
-0.000413916
-0.000927629
-0.00108149
0.00140816
-0.00076839
-0.000579841
-0.000504174
-0.00075264
-0.00175837
0.00298328
-0.000308197
-0.0033112
-0.00230828
0.00437328
-0.00121878
-0.00233852
-0.00176393
0.000886717
-0.00251869
0.00209375
-0.000209447
-0.00530822
-0.00342348
0.00726169
-0.000992051
-0.00536943
-0.00300218
0.00400154
-0.00382722
0.0023396
-0.000386824
-0.00781195
-0.00225944
0.00398863
-0.00256717
0.000971786
-0.00160308
-0.00207835
-0.000610951
-0.0024794
-0.00328896
0.0059833
-0.00334829
0.000467039
-0.000667505
-0.00595004
-0.00159504
0.0493818
0.0135343
-0.0481879
0.0503447
0.0145533
0.0503617
0.0147017
0.0493383
0.0140887
0.0474923
0.0130262
0.0451163
0.0117555
0.0424822
0.0104416
0.0397963
0.00918979
0.0371936
0.00805544
0.0347485
0.00705941
0.0324932
0.00620127
0.0304335
0.00546954
0.028561
0.00484822
0.0268608
0.00432063
0.0253157
0.00387138
0.0239088
0.00348715
0.0226244
0.0031568
0.0214484
0.00287118
0.0203684
0.00262283
0.0193737
0.00240567
0.0184548
0.00221478
0.0176035
0.00204612
0.0168128
0.00189639
0.0160764
0.00176287
0.0153891
0.0016433
0.0147459
0.0015358
0.0141429
0.00143879
0.0135763
0.00135095
0.0130429
0.00127116
0.0125398
0.00119845
0.0120645
0.00113203
0.0116147
0.00107119
0.0111884
0.00101533
0.0107836
0.000963922
0.0103988
0.000916525
0.0100325
0.000872741
0.00968323
0.000832226
0.00934985
0.000794678
0.00903121
0.000759831
0.00872626
0.000727454
0.00843408
0.000697336
0.00815377
0.000669296
0.00788455
0.000643169
0.00762566
0.000618814
0.00737642
0.000596096
0.00713619
0.000574905
0.00690437
0.000555135
0.0066804
0.000536694
0.00646375
0.000519502
0.00625392
0.000503481
0.00605047
0.00048857
0.00585293
0.000474699
0.0056609
0.000461833
0.00547398
0.000449897
0.00529178
0.000438886
0.00511395
0.000428709
0.00494012
0.000419403
0.00476999
0.000410842
0.00460319
0.00040312
0.00443946
0.000396052
0.00427844
0.000389814
0.00411989
0.000384133
0.00396348
0.000379299
0.00380899
0.000374908
0.00365608
0.00037141
0.00350458
0.000368216
0.00335413
0.000365988
0.00320463
0.000363882
0.00305567
0.000362849
0.00290724
0.000361689
0.00275891
0.000361756
0.00261077
0.000361329
0.00246232
0.000362388
0.00231385
0.000362364
0.00216469
0.000364309
0.00201553
0.000364186
0.00186531
0.000366926
0.0017154
0.000366031
0.00156412
0.000369348
0.00141369
0.00036723
0.00126196
0.000370008
0.00111119
0.000367936
0.000960905
0.000365725
0.000809099
0.000370234
0.000664291
0.000351718
0.000510625
0.000373301
0.00037198
0.000337643
0.000228956
0.000343377
7.75615e-05
0.000375122
-1.97923e-05
0.00021903
-0.00024353
0.000565977
-0.00021791
-8.48734e-05
-0.000461098
0.000562997
-0.000640736
0.000541599
-0.000445584
-0.000632194
-0.0010683
0.00168031
-0.000533699
-0.00146222
-0.00145342
0.00232789
-0.000994495
-0.00103877
-0.000733235
-0.00101389
-0.0022875
0.00453754
-0.000401998
-0.0051967
-0.00310276
0.00707405
-0.00162557
-0.00381572
-0.00253871
0.00179986
-0.00331153
0.00286656
-0.000338334
-0.00828142
-0.00451284
0.0114362
-0.00124018
-0.00864211
-0.00421691
0.0069783
-0.00500397
0.00312665
-0.00056176
-0.0122542
-0.00314069
0.00656756
-0.00332304
0.00115414
-0.00206664
-0.00333475
-0.0009037
-0.00364234
-0.00440001
0.00947962
-0.00425091
0.000318117
-0.000712688
-0.00948826
-0.00245623
0.05284
0.0126365
-0.0519422
0.0538678
0.0135254
0.0545509
0.0140186
0.0546189
0.0140207
0.0540193
0.0136258
0.0528213
0.0129535
0.0511544
0.0121085
0.0491649
0.0111793
0.0469876
0.0102327
0.0447331
0.00931393
0.0424836
0.00845078
0.0402952
0.00765797
0.0382024
0.006941
0.0362237
0.00629927
0.0343666
0.00572854
0.0326311
0.00522264
0.0310131
0.00477474
0.0295063
0.00437802
0.028103
0.00402609
0.0267955
0.00371321
0.0255759
0.00343432
0.0244371
0.00318498
0.0233721
0.00296141
0.0223746
0.00276032
0.021439
0.00257892
0.02056
0.00241478
0.0197329
0.00226586
0.0189535
0.00213036
0.0182179
0.00200675
0.0175227
0.00189372
0.0168646
0.00179011
0.0162408
0.00169493
0.0156488
0.00160732
0.0150862
0.00152652
0.0145509
0.00145187
0.0140409
0.00138278
0.0135543
0.00131874
0.0130897
0.00125931
0.0126455
0.00120408
0.0122202
0.0011527
0.0118127
0.00110485
0.0114218
0.00106025
0.0110463
0.00101866
0.0106852
0.000979847
0.0103377
0.000943615
0.0100028
0.000909789
0.00967976
0.000878204
0.00936774
0.000848719
0.00906603
0.000821207
0.00877396
0.000795547
0.00849089
0.000771644
0.0082162
0.000749389
0.00794931
0.000728723
0.00768967
0.000709533
0.00743675
0.000691807
0.00719005
0.000675407
0.00694908
0.000660382
0.00671337
0.000646548
0.00648246
0.000634031
0.00625594
0.000622569
0.00603336
0.000612403
0.00581434
0.000603149
0.00559843
0.000595206
0.00538533
0.000588012
0.00517456
0.000582183
0.00496587
0.000576905
0.00475877
0.000573087
0.0045531
0.000569561
0.00434831
0.000567637
0.00414435
0.000565651
0.00394063
0.000565475
0.00373725
0.00056471
0.00353352
0.000566117
0.00332982
0.000566068
0.00312522
0.000568904
0.00292062
0.000568792
0.0027146
0.000572942
0.00250894
0.000571694
0.00230139
0.000576892
0.00209492
0.000573704
0.00188654
0.000578386
0.00167948
0.000574988
0.00147267
0.000572543
0.00126414
0.000578763
0.00106416
0.000551691
0.000852845
0.000584622
0.000661369
0.000529121
0.000462572
0.000542177
0.000255853
0.000581843
0.000114016
0.000360871
-0.000182405
0.000862398
-0.000163144
-0.000104131
-0.000500964
0.000900823
-0.00071432
0.00075495
-0.00051063
-0.00083588
-0.00129223
0.00246191
-0.000639167
-0.00211528
-0.00183338
0.0035221
-0.00121592
-0.00165622
-0.00099503
-0.00123475
-0.00281503
0.00635753
-0.00049222
-0.00751952
-0.00393499
0.0105168
-0.0020526
-0.00569812
-0.00343297
0.00318025
-0.00413913
0.00357269
-0.000517208
-0.0119034
-0.00561958
0.0165386
-0.00144725
-0.0128145
-0.00556503
0.0110961
-0.0061916
0.0037532
-0.000791961
-0.0176538
-0.00410908
0.00988469
-0.00405473
0.00109974
-0.00253935
-0.00485014
-0.00124414
-0.00493753
-0.00552836
0.0137638
-0.00506588
-0.000144638
-0.000664909
-0.0138892
-0.00350664
0.05656
0.0119497
-0.0558732
0.0574132
0.0126723
0.0582093
0.0132225
0.0587355
0.0134946
0.0588695
0.0134918
0.0585655
0.0132574
0.057833
0.012841
0.0567198
0.0122925
0.0552943
0.0116582
0.0536321
0.0109761
0.0518066
0.0102763
0.0498831
0.00958149
0.0479162
0.00890789
0.045949
0.0082665
0.0440134
0.00766408
0.042132
0.00710403
0.0403194
0.00658731
0.0385844
0.00611311
0.0369309
0.00567951
0.0353602
0.00528389
0.0338712
0.00492334
0.0324614
0.00459483
0.0311274
0.0042954
0.0298654
0.00402228
0.0286715
0.00377286
0.0275415
0.00354478
0.0264714
0.00333591
0.0254575
0.00314432
0.0244959
0.0029683
0.0235833
0.00280632
0.0227164
0.00265701
0.0218922
0.00251917
0.0211078
0.00239173
0.0203605
0.00227374
0.0196481
0.00216433
0.0189681
0.00206276
0.0183185
0.00196835
0.0176973
0.0018805
0.0171027
0.00179866
0.016533
0.00172237
0.0159867
0.00165118
0.0154622
0.00158471
0.0149583
0.00152262
0.0144735
0.00146459
0.0140068
0.00141034
0.013557
0.00135961
0.013123
0.00131219
0.0127039
0.00126787
0.0122986
0.00122646
0.0119064
0.00118779
0.0115263
0.00115173
0.0111576
0.00111811
0.0107994
0.00108685
0.0104512
0.00105779
0.0101121
0.00103091
0.00978147
0.00100601
0.0094587
0.00098315
0.00914318
0.000962077
0.00883425
0.000942961
0.00853138
0.000925438
0.00823395
0.00090983
0.00794149
0.000895617
0.00765336
0.000883331
0.00736916
0.000872215
0.00708826
0.000863091
0.0068103
0.000854864
0.00653463
0.000848752
0.00626101
0.000843183
0.00598874
0.000839912
0.00571769
0.000836702
0.0054471
0.000836066
0.00517705
0.000834759
0.00490665
0.000836523
0.00463632
0.000836397
0.00436488
0.000840346
0.00409341
0.000840265
0.00382009
0.000846255
0.00354716
0.000844627
0.0032717
0.000852345
0.00299753
0.000847878
0.00272068
0.000855237
0.00244553
0.000850131
0.00217017
0.000847907
0.00189297
0.000855957
0.00162571
0.000818949
0.00134462
0.000865719
0.00108841
0.000785333
0.000821339
0.000809249
0.000548177
0.000855007
0.000349111
0.000559941
-3.37338e-05
0.00124524
-2.3091e-05
-0.000114774
-0.000477662
0.0013554
-0.000725396
0.00100268
-0.000533105
-0.00102817
-0.00147829
0.00340709
-0.000714617
-0.00287895
-0.00220365
0.00501114
-0.00142064
-0.00243923
-0.00128158
-0.00137379
-0.003328
0.00840395
-0.000575014
-0.0102725
-0.00478268
0.0147245
-0.00248756
-0.00799325
-0.00443486
0.00512758
-0.00499812
0.00413592
-0.000764101
-0.0161374
-0.00672266
0.0224971
-0.00159957
-0.0179376
-0.00700912
0.0165057
-0.00736944
0.00411351
-0.00110026
-0.023923
-0.00514447
0.0139289
-0.0047484
0.000703788
-0.00302142
-0.00657713
-0.00161921
-0.00633972
-0.0066221
0.0187667
-0.00574881
-0.00101769
-0.000504718
-0.0191333
-0.00477568
0.0605652
0.0113867
-0.0600022
0.0612494
0.0119881
0.0619637
0.0125082
0.0625854
0.0128729
0.0630168
0.0130604
0.0631941
0.0130801
0.0630817
0.0129535
0.062669
0.0127052
0.0619663
0.0123608
0.0609983
0.0119441
0.0597994
0.0114752
0.0584093
0.0109716
0.0568692
0.0104479
0.0552193
0.00991643
0.0534964
0.00938698
0.051733
0.00886748
0.0499563
0.008364
0.0481885
0.00788093
0.0464467
0.00742125
0.0447439
0.00698671
0.0430892
0.00657807
0.0414886
0.00619534
0.0399461
0.00583794
0.0384635
0.00550492
0.0370412
0.00519508
0.0356789
0.00490706
0.0343754
0.00463946
0.0331289
0.00439085
0.0319373
0.00415985
0.0307985
0.00394514
0.02971
0.00374547
0.0286695
0.00355967
0.0276746
0.00338666
0.0267229
0.00322545
0.0258121
0.00307513
0.02494
0.00293486
0.0241045
0.00280387
0.0233035
0.00268146
0.0225352
0.00256701
0.0217976
0.00245994
0.0210891
0.00235972
0.0204079
0.00226587
0.0197526
0.00217796
0.0191215
0.00209561
0.0185134
0.00201844
0.0179269
0.00194614
0.0173607
0.00187841
0.0168136
0.00181499
0.0162844
0.00175563
0.0157721
0.00170011
0.0152756
0.00164823
0.0147939
0.0015998
0.014326
0.0015547
0.0138711
0.0015127
0.0134282
0.00147378
0.0129966
0.00143767
0.0125753
0.00140446
0.0121635
0.0013738
0.0117606
0.00134591
0.0113657
0.00132031
0.0109781
0.00129742
0.0105972
0.00127656
0.0102221
0.00125841
0.00985233
0.001242
0.00948704
0.00122838
0.00912578
0.00121613
0.00876769
0.00120684
0.00841243
0.00119844
0.0080591
0.00119325
0.0077075
0.0011883
0.00735665
0.00118692
0.00700662
0.0011848
0.00665622
0.00118692
0.00630598
0.00118664
0.00595436
0.00119197
0.00560266
0.00119196
0.0052486
0.00120032
0.0048949
0.00119833
0.00453788
0.00120936
0.0041823
0.00120345
0.00382306
0.00121448
0.0034659
0.00120729
0.0031078
0.00120601
0.00274779
0.00121596
0.00239885
0.0011679
0.0020336
0.00123097
0.00169836
0.00112057
0.00134818
0.00115943
0.00099503
0.00120816
0.000723444
0.000831532
0.000249067
0.00171962
0.000213218
-7.8916e-05
-0.000361018
0.00192964
-0.000644111
0.00128577
-0.000488876
-0.00118339
-0.0015999
0.00451811
-0.000737952
-0.00374089
-0.00253967
0.00681286
-0.00159028
-0.00338862
-0.00157841
-0.00138565
-0.00381096
0.0106365
-0.000645369
-0.0134381
-0.0056182
0.0196973
-0.00291189
-0.0106996
-0.005519
0.00773471
-0.00588197
0.00449886
-0.00109984
-0.0209195
-0.00780687
0.0292041
-0.00168731
-0.0240572
-0.00849176
0.0233102
-0.00851231
0.00413403
-0.00150996
-0.0309253
-0.00622286
0.0186418
-0.00539686
-0.000122619
-0.00350817
-0.00846583
-0.00200598
-0.0078419
-0.00761691
0.0243777
-0.0062491
-0.00238563
-0.000207454
-0.025175
-0.00632537
0.0648493
0.0109022
-0.0643649
0.0654145
0.0114229
0.0660219
0.0119008
0.0666064
0.0122884
0.0671054
0.0125614
0.0674702
0.0127153
0.0676656
0.0127581
0.0676675
0.0127032
0.0674628
0.0125655
0.0670474
0.0123596
0.0664249
0.0120978
0.0656057
0.0117907
0.0646058
0.0114478
0.0634451
0.0110772
0.0621461
0.010686
0.060733
0.0102805
0.0592302
0.00986683
0.057661
0.00945009
0.0560473
0.00903501
0.0544084
0.00862562
0.0527611
0.00822529
0.0511198
0.0078367
0.0494958
0.00746188
0.0478985
0.00710228
0.0463347
0.00675881
0.0448098
0.00643194
0.0433275
0.00612179
0.0418902
0.00582819
0.0404992
0.00555078
0.0391554
0.00528903
0.0378585
0.00504233
0.0366082
0.00480999
0.0354035
0.00459131
0.0342434
0.00438555
0.0331265
0.00419201
0.0320514
0.00400997
0.0310165
0.00383877
0.0300202
0.00367775
0.0290609
0.00352631
0.028137
0.00338388
0.0272468
0.00324991
0.0263888
0.00312391
0.0255613
0.0030054
0.024763
0.00289396
0.0239922
0.00278918
0.0232477
0.0026907
0.0225279
0.00259817
0.0218316
0.00251128
0.0211575
0.00242975
0.0205043
0.00235329
0.0198708
0.00228171
0.0192559
0.00221472
0.0186584
0.0021522
0.0180773
0.00209386
0.0175114
0.00203968
0.0169597
0.00198932
0.0164213
0.00194289
0.0158952
0.00189994
0.0153803
0.00186078
0.0148758
0.00182476
0.0143808
0.00179245
0.0138944
0.00176295
0.0134156
0.00173718
0.0129438
0.00171383
0.0124779
0.00169431
0.0120173
0.00167674
0.0115609
0.00166322
0.0111083
0.00165104
0.0106583
0.00164322
0.0102107
0.00163591
0.00976422
0.00163344
0.00931883
0.00163018
0.00887309
0.00163266
0.00842758
0.00163216
0.00798034
0.00163921
0.00753296
0.00163934
0.00708252
0.00165076
0.00663237
0.00164848
0.00617787
0.00166386
0.00572491
0.00165641
0.00526702
0.00167237
0.0048115
0.0016628
0.004354
0.00166351
0.00389452
0.00167544
0.00344685
0.00161557
0.00298045
0.00169737
0.00254912
0.00155191
0.00209822
0.00161033
0.00164878
0.0016576
0.0012863
0.00119402
0.000705128
0.00230079
0.000605529
2.06792e-05
-0.000114526
0.0026497
-0.000429823
0.00160106
-0.000345807
-0.00126741
-0.00162179
0.00579409
-0.000678673
-0.00468401
-0.00280848
0.00894267
-0.00169785
-0.00449925
-0.0018621
-0.00122132
-0.00424423
0.0130186
-0.000695991
-0.0169864
-0.00640905
0.0254104
-0.00329955
-0.0138091
-0.00664316
0.0110784
-0.00677672
0.00463238
-0.00154345
-0.0261528
-0.00886535
0.036526
-0.00170777
-0.0312148
-0.00993538
0.0315378
-0.00958543
0.00378404
-0.00203665
-0.0384741
-0.00731748
0.0239227
-0.00600167
-0.00143808
-0.00398587
-0.0104816
-0.00236983
-0.00945792
-0.00843683
0.0304447
-0.00650805
-0.00431437
0.000269445
-0.0319525
-0.00825323
0.0694211
0.0104748
-0.0689937
0.0699045
0.0109395
0.0704248
0.0113804
0.0709464
0.0117668
0.0714297
0.0120782
0.0718407
0.0123043
0.0721535
0.0124453
0.0723488
0.0125079
0.0724124
0.012502
0.0723343
0.0124377
0.0721075
0.0123245
0.0717284
0.0121699
0.0711961
0.0119801
0.0705132
0.0117601
0.069685
0.0115141
0.06872
0.0112455
0.0676294
0.0109574
0.0664266
0.0106529
0.0651264
0.0103351
0.0637448
0.0100072
0.0622978
0.00967231
0.060801
0.00933354
0.059269
0.00899382
0.0577155
0.00865584
0.0561523
0.00832198
0.05459
0.00799427
0.0530374
0.00767439
0.0515019
0.00736368
0.0499895
0.00706314
0.048505
0.00677349
0.0470522
0.00649519
0.0456337
0.00622851
0.0442515
0.00597352
0.0429068
0.00573017
0.0416005
0.00549831
0.0403328
0.00527768
0.0391036
0.00506798
0.0379125
0.00486886
0.0367589
0.00467995
0.0356419
0.00450086
0.0345606
0.00433118
0.033514
0.00417055
0.0325008
0.00401855
0.03152
0.00387482
0.0305702
0.00373899
0.0296501
0.00361072
0.0287586
0.00348969
0.0278943
0.00337557
0.027056
0.00326809
0.0262423
0.00316696
0.0254521
0.00307195
0.024684
0.00298277
0.0239369
0.00289929
0.0232096
0.00282118
0.0225009
0.00274844
0.0218095
0.00268066
0.0211344
0.002618
0.0204745
0.0025599
0.0198285
0.00250676
0.0191954
0.00245779
0.0185742
0.00241372
0.0179637
0.0023734
0.0173629
0.00233801
0.0167708
0.0023059
0.0161862
0.00227889
0.0156084
0.00225455
0.015036
0.00223561
0.0144685
0.00221857
0.0139044
0.00220735
0.0133433
0.00219697
0.0127837
0.00219305
0.0122256
0.00218831
0.011667
0.0021912
0.0111088
0.00219042
0.0105483
0.00219967
0.00998752
0.00220011
0.0094228
0.00221547
0.00885816
0.00221313
0.00828786
0.00223415
0.00771903
0.00222523
0.00714362
0.00224778
0.00657077
0.00223566
0.00599443
0.00223986
0.00541596
0.00225391
0.00484957
0.00218195
0.00426201
0.00228493
0.00371434
0.00209959
0.00314193
0.00218274
0.00257668
0.00222286
0.00210127
0.00166943
0.0013954
0.00300666
0.00120975
0.00020634
0.000345495
0.00351396
-1.52344e-05
0.00196178
-6.55738e-05
-0.00121706
-0.00149744
0.00722595
-0.000494847
-0.0056866
-0.00296668
0.0114145
-0.00170478
-0.00576114
-0.00209755
-0.000828182
-0.00460086
0.0155219
-0.000714996
-0.0208722
-0.00711795
0.0318133
-0.00361571
-0.0173113
-0.00774621
0.0152089
-0.00765478
0.00454092
-0.00210388
-0.0317037
-0.0098978
0.0443199
-0.00166675
-0.0394458
-0.0112447
0.0411158
-0.0105373
0.00307674
-0.00267579
-0.0463356
-0.00839723
0.0296441
-0.00657117
-0.00326427
-0.00442633
-0.0126265
-0.00266297
-0.0112213
-0.00899422
0.0367759
-0.00645451
-0.00685411
0.000980765
-0.0393877
-0.0107058
0.0743003
0.0100919
-0.0739174
0.0747245
0.0105153
0.075179
0.010926
0.0756429
0.0113029
0.0760906
0.0116306
0.0764973
0.0118975
0.0768433
0.0120992
0.077114
0.0122372
0.0772991
0.0123169
0.0773911
0.0123457
0.0773843
0.0123313
0.0772735
0.0122807
0.0770544
0.0121991
0.0767232
0.0120914
0.0762766
0.0119607
0.0757129
0.0118093
0.0750316
0.0116386
0.0742347
0.0114498
0.073326
0.0112439
0.0723115
0.0110217
0.0711991
0.0107847
0.0699983
0.0105343
0.0687198
0.0102723
0.067375
0.0100007
0.0659754
0.00972158
0.0645325
0.00943717
0.0630573
0.0091496
0.06156
0.0088609
0.0600502
0.00857298
0.0585362
0.00828753
0.0570253
0.00800604
0.055524
0.00772978
0.0540378
0.00745981
0.052571
0.00719698
0.0511273
0.00694195
0.0497098
0.00669522
0.0483206
0.00645714
0.0469616
0.00622793
0.0456338
0.00600772
0.0443381
0.00579656
0.0430749
0.00559439
0.0418443
0.00540114
0.0406461
0.00521668
0.0394801
0.00504085
0.0383457
0.00487345
0.0372421
0.0047143
0.0361686
0.00456318
0.0351243
0.00441987
0.0341082
0.00428418
0.0331193
0.00415587
0.0321565
0.00403477
0.0312186
0.00392062
0.0303046
0.00381333
0.0294132
0.00371257
0.0285432
0.0036184
0.0276935
0.00353035
0.0268629
0.00344868
0.02605
0.00337273
0.0252537
0.00330305
0.0244729
0.00323865
0.0237061
0.0031805
0.0229524
0.00312716
0.0222102
0.00308017
0.0214787
0.00303744
0.0207562
0.00300131
0.0200421
0.00296872
0.0193345
0.00294314
0.018633
0.00292015
0.0179355
0.00290477
0.0172419
0.00289062
0.01655
0.00288496
0.0158599
0.00287844
0.0151691
0.00288194
0.0144786
0.00288094
0.0137852
0.00289308
0.0130912
0.00289414
0.012392
0.00291467
0.0116924
0.00291267
0.0109855
0.00294107
0.0102798
0.00293099
0.00956526
0.00296226
0.00885322
0.0029477
0.00813565
0.00295743
0.00741554
0.00297402
0.0067072
0.00289029
0.00597506
0.00301707
0.00528724
0.00278741
0.00456884
0.00290114
0.00386457
0.00292713
0.00325009
0.00228391
0.00239835
0.00385841
0.00209876
0.000505929
0.00107801
0.00453472
0.00058389
0.0024559
0.000458639
-0.0010918
-0.00116549
0.00885007
-0.000125189
-0.0067269
-0.00295802
0.0142473
-0.00155719
-0.00716196
-0.00223516
-0.000149786
-0.00484172
0.0181284
-0.000682049
-0.0250319
-0.00770119
0.0388325
-0.00381481
-0.0211977
-0.00874745
0.0201416
-0.00846745