/*--------------------------------*- C++ -*----------------------------------*\
| =========                 |                                                 |
| \\      /  F ield         | OpenFOAM: The Open Source CFD Toolbox           |
|  \\    /   O peration     | Version:  2412                                  |
|   \\  /    A nd           | Website:  www.openfoam.com                      |
|    \\/     M anipulation  |                                                 |
\*---------------------------------------------------------------------------*/
FoamFile
{
    version     2.0;
    format      ascii;
    arch        "LSB;label=32;scalar=64";
    class       volScalarField;
    location    "0.08";
    object      p;
}
// * * * * * * * * * * * * * * * * * * * * * * * * * * * * * * * * * * * * * //

dimensions      [0 2 -2 0 0 0 0];

internalField   nonuniform List<scalar> 
12600
(
0.082447
37.8043
51.3897
59.17
64.4662
68.1745
70.7615
72.4929
73.5382
74.0154
74.0123
73.594
72.8088
71.6876
70.2452
68.5163
66.4999
64.217
61.6796
58.8965
55.8754
52.6242
49.1504
45.4541
41.5332
37.3865
33.0154
28.4244
23.6166
18.5871
13.3256
7.84076
2.12649
-3.82423
-9.98538
-16.3958
-23.0631
-29.9375
-37.096
-44.4837
-52.0816
-60.0176
-68.1526
-76.5957
-85.3364
-94.2738
-103.578
-113.085
-122.959
-133.11
-143.555
-154.362
-165.403
-176.871
-188.595
-200.741
-213.17
-226.003
-239.175
-252.751
-266.739
-281.098
-295.911
-311.083
-326.769
-342.84
-359.46
-376.487
-394.094
-412.133
-430.796
-449.929
-469.69
-489.971
-510.928
-532.459
-554.694
-577.549
-601.138
-625.406
-650.445
-676.218
-702.799
-730.158
-758.399
-787.501
-817.473
-848.401
-880.236
-913.045
-946.833
-981.682
-1017.48
-1054.48
-1092.43
-1131.65
-1171.85
-1213.34
-1255.96
-1299.71
-1344.92
-1390.93
-1438.96
-1487.24
-1538.23
-1588.93
-1642.63
-1696
-1751.99
-1808.29
-1866.48
-1925.79
-1986.51
-2048.23
-2111.8
-2174.93
-2240.52
-2303.67
-2366.87
-2423.1
4.17223
29.3393
44.7071
54.674
61.3215
65.8854
69.0442
71.1768
72.5161
73.2168
73.3882
73.1053
72.4228
71.3751
69.997
68.3283
66.3629
64.1268
61.6314
58.8852
55.897
52.6753
49.2279
45.5548
41.6541
37.5255
33.171
28.5949
23.8005
18.7831
13.5315
8.05591
2.3508
-3.59314
-9.74709
-16.151
-22.815
-29.6834
-36.8387
-44.2258
-51.8207
-59.7578
-67.8921
-76.3344
-85.0759
-94.012
-103.317
-112.824
-122.699
-132.85
-143.296
-154.103
-165.144
-176.614
-188.339
-200.485
-212.914
-225.748
-238.921
-252.497
-266.486
-280.846
-295.659
-310.831
-326.517
-342.589
-359.209
-376.235
-393.843
-411.882
-430.544
-449.677
-469.437
-489.718
-510.674
-532.204
-554.439
-577.292
-600.88
-625.147
-650.184
-675.957
-702.536
-729.893
-758.132
-787.232
-817.202
-848.128
-879.961
-912.768
-946.553
-981.399
-1017.19
-1054.19
-1092.14
-1131.36
-1171.56
-1213.04
-1255.65
-1299.4
-1344.61
-1390.62
-1438.65
-1486.93
-1537.91
-1588.61
-1642.3
-1695.67
-1751.65
-1807.95
-1866.14
-1925.44
-1986.16
-2047.89
-2111.45
-2174.59
-2240.17
-2303.34
-2366.53
-2422.93
10.5103
28.3201
42.3264
52.3612
59.3876
64.3348
67.8073
70.1855
71.7168
72.5696
72.8635
72.6832
72.0873
71.1149
69.7987
68.19
66.2665
64.0685
61.6058
58.8875
55.9231
52.7219
49.292
45.6338
41.7455
37.6276
33.2831
28.7155
23.9286
18.9176
13.6708
8.19922
2.4989
-3.44218
-9.59357
-15.9941
-22.6579
-29.5245
-36.6769
-44.0637
-51.655
-59.5909
-67.7252
-76.1648
-84.9065
-93.8411
-103.146
-112.653
-122.527
-132.679
-143.124
-153.932
-164.973
-176.443
-188.169
-200.316
-212.746
-225.58
-238.754
-252.331
-266.321
-280.681
-295.495
-310.668
-326.356
-342.428
-359.049
-376.076
-393.684
-411.725
-430.388
-449.521
-469.282
-489.563
-510.52
-532.051
-554.286
-577.14
-600.728
-624.996
-650.034
-675.806
-702.386
-729.743
-757.983
-787.083
-817.053
-847.979
-879.813
-912.62
-946.405
-981.252
-1017.05
-1054.04
-1091.99
-1131.21
-1171.41
-1212.9
-1255.51
-1299.26
-1344.47
-1390.47
-1438.5
-1486.78
-1537.76
-1588.46
-1642.15
-1695.52
-1751.51
-1807.8
-1865.99
-1925.3
-1986.02
-2047.74
-2111.31
-2174.44
-2240.04
-2303.21
-2366.41
-2422.86
17.7784
30.7863
42.301
51.3844
58.2063
63.2214
66.8393
69.3715
71.0434
72.0186
72.4165
72.3243
71.8019
70.8913
69.6209
68.0749
66.1848
64.0224
61.5917
58.9013
55.9611
52.7813
49.37
45.7279
41.8536
37.7485
33.416
28.8594
24.0818
19.0793
13.8395
8.37394
2.68054
-3.25517
-9.4024
-15.7973
-22.4586
-29.3222
-36.4699
-43.8565
-51.4451
-59.379
-67.5143
-75.9509
-84.6927
-93.6266
-102.93
-112.438
-122.311
-132.464
-142.908
-153.717
-164.758
-176.228
-187.955
-200.101
-212.532
-225.366
-238.541
-252.118
-266.109
-280.469
-295.284
-310.456
-326.145
-342.218
-358.839
-375.866
-393.474
-411.515
-430.178
-449.311
-469.072
-489.353
-510.309
-531.84
-554.074
-576.928
-600.515
-624.781
-649.819
-675.59
-702.169
-729.525
-757.763
-786.862
-816.83
-847.755
-879.586
-912.392
-946.175
-981.02
-1016.81
-1053.81
-1091.75
-1130.97
-1171.17
-1212.65
-1255.26
-1299
-1344.21
-1390.22
-1438.24
-1486.52
-1537.5
-1588.2
-1641.88
-1695.25
-1751.23
-1807.53
-1865.71
-1925.02
-1985.73
-2047.45
-2111.02
-2174.16
-2239.74
-2302.93
-2366.13
-2422.73
24.6938
34.3027
43.4717
51.3175
57.6075
62.4542
66.0717
68.6728
70.4376
71.5089
71.9959
71.9813
71.5249
70.6716
69.4596
67.942
66.1017
63.9771
61.5795
58.9185
56.0038
52.8463
49.4543
45.829
41.9694
37.8777
33.5578
29.0125
24.2444
19.2503
14.0177
8.55798
2.87131
-3.05886
-9.20251
-15.5922
-22.2509
-29.1126
-36.2553
-43.6418
-51.2286
-59.1596
-67.2967
-75.7304
-84.4719
-93.406
-102.708
-112.217
-122.089
-132.243
-142.686
-153.495
-164.538
-176.008
-187.735
-199.882
-212.313
-225.148
-238.324
-251.902
-265.893
-280.254
-295.069
-310.243
-325.932
-342.005
-358.627
-375.654
-393.263
-411.304
-429.967
-449.101
-468.862
-489.143
-510.1
-531.63
-553.865
-576.718
-600.305
-624.572
-649.608
-675.38
-701.958
-729.313
-757.551
-786.65
-816.617
-847.541
-879.372
-912.177
-945.959
-980.803
-1016.59
-1053.59
-1091.53
-1130.75
-1170.95
-1212.43
-1255.04
-1298.78
-1343.99
-1389.99
-1438.01
-1486.29
-1537.27
-1587.96
-1641.65
-1695.02
-1751
-1807.29
-1865.48
-1924.78
-1985.5
-2047.22
-2110.78
-2173.92
-2239.52
-2302.72
-2365.95
-2422.63
30.7129
37.9912
45.2716
51.8888
57.4917
62.0065
65.4988
68.0855
69.8907
71.0259
71.5828
71.6344
71.2378
70.4394
69.2808
67.8018
66.0092
63.9236
61.5607
58.9305
56.0429
52.9091
49.5378
45.9304
42.0867
38.0096
33.7036
29.1706
24.4129
19.4277
14.2031
8.74994
3.07062
-2.85303
-8.99274
-15.3767
-22.0317
-28.8915
-36.0285
-43.4143
-50.9996
-58.9267
-67.0658
-75.4961
-84.2366
-93.1713
-102.471
-111.982
-121.852
-132.006
-142.449
-153.258
-164.301
-175.77
-187.499
-199.645
-212.078
-224.912
-238.089
-251.668
-265.659
-280.021
-294.837
-310.011
-325.7
-341.775
-358.397
-375.424
-393.033
-411.075
-429.738
-448.872
-468.633
-488.914
-509.871
-531.401
-553.635
-576.488
-600.075
-624.34
-649.376
-675.147
-701.724
-729.079
-757.315
-786.413
-816.38
-847.302
-879.132
-911.935
-945.716
-980.558
-1016.35
-1053.34
-1091.28
-1130.5
-1170.69
-1212.17
-1254.78
-1298.52
-1343.73
-1389.73
-1437.75
-1486.02
-1536.99
-1587.69
-1641.37
-1694.74
-1750.72
-1807.01
-1865.19
-1924.49
-1985.21
-2046.93
-2110.49
-2173.63
-2239.23
-2302.45
-2365.69
-2422.51
35.7227
41.4229
47.2659
52.8
57.6936
61.7951
65.078
67.5835
69.3823
70.5506
71.1579
71.2644
70.9223
70.1773
69.071
67.6363
65.8954
63.8496
61.5229
58.9262
56.0682
52.9606
49.6121
46.0249
42.1993
38.1389
33.8486
29.3297
24.5836
19.6086
14.3932
8.94768
3.27665
-2.63925
-8.77437
-15.1519
-21.8022
-28.6599
-35.7904
-43.1747
-50.7591
-58.6813
-66.8224
-75.249
-83.9878
-92.9236
-102.22
-111.733
-121.601
-131.756
-142.197
-153.005
-164.051
-175.518
-187.249
-199.394
-211.827
-224.662
-237.84
-251.419
-265.411
-279.774
-294.589
-309.764
-325.454
-341.53
-358.151
-375.18
-392.789
-410.831
-429.494
-448.628
-468.389
-488.67
-509.626
-531.157
-553.39
-576.243
-599.829
-624.095
-649.13
-674.9
-701.477
-728.831
-757.066
-786.163
-816.128
-847.05
-878.878
-911.68
-945.459
-980.301
-1016.09
-1053.08
-1091.02
-1130.24
-1170.43
-1211.91
-1254.51
-1298.25
-1343.45
-1389.45
-1437.47
-1485.74
-1536.72
-1587.41
-1641.09
-1694.46
-1750.43
-1806.73
-1864.9
-1924.2
-1984.92
-2046.63
-2110.2
-2173.35
-2238.94
-2302.19
-2365.49
-2422.41
39.7833
44.3956
49.1687
53.8069
58.0445
61.7146
64.7442
67.1235
68.8794
70.0542
70.6945
70.8463
70.555
69.8638
68.8118
67.4251
65.7436
63.7388
61.4507
58.8911
56.0665
52.9888
49.6666
46.1028
42.2984
38.2578
33.9857
29.4832
24.7507
19.7875
14.5831
9.14694
3.48553
-2.42104
-8.55051
-14.9208
-21.5648
-28.42
-35.5431
-42.925
-50.5086
-58.4247
-66.5676
-74.9903
-83.7263
-92.6634
-101.956
-111.471
-121.335
-131.491
-141.931
-152.738
-163.785
-175.251
-186.984
-199.127
-211.562
-224.396
-237.575
-251.154
-265.147
-279.51
-294.325
-309.502
-325.191
-341.268
-357.889
-374.918
-392.527
-410.57
-429.233
-448.367
-468.127
-488.409
-509.365
-530.896
-553.129
-575.981
-599.567
-623.832
-648.866
-674.635
-701.211
-728.564
-756.798
-785.895
-815.859
-846.778
-878.605
-911.407
-945.183
-980.024
-1015.81
-1052.8
-1090.74
-1129.95
-1170.14
-1211.62
-1254.22
-1297.96
-1343.16
-1389.15
-1437.17
-1485.44
-1536.41
-1587.1
-1640.78
-1694.15
-1750.12
-1806.42
-1864.59
-1923.89
-1984.6
-2046.31
-2109.88
-2173.03
-2238.62
-2301.91
-2365.22
-2422.29
43.0118
46.8504
50.8269
54.7453
58.41
61.6685
64.4314
66.659
68.3457
69.5057
70.1642
70.3537
70.1117
69.4765
68.4831
67.1559
65.5262
63.5717
61.3264
58.8088
56.0227
52.9796
49.6883
46.1523
42.3735
38.3564
34.1062
29.623
24.9068
19.9577
14.7668
9.34228
3.69236
-2.20285
-8.32512
-14.687
-21.3229
-28.1747
-35.2893
-42.6674
-50.2501
-58.1587
-66.3027
-74.7211
-83.4531
-92.3915
-101.679
-111.196
-121.057
-131.212
-141.651
-152.456
-163.506
-174.969
-186.703
-198.845
-211.28
-224.113
-237.294
-250.873
-264.866
-279.229
-294.045
-309.222
-324.911
-340.99
-357.61
-374.64
-392.248
-410.292
-428.954
-448.089
-467.849
-488.131
-509.086
-530.617
-552.849
-575.701
-599.286
-623.551
-648.584
-674.353
-700.927
-728.28
-756.512
-785.608
-815.57
-846.488
-878.314
-911.114
-944.889
-979.728
-1015.51
-1052.5
-1090.44
-1129.65
-1169.84
-1211.31
-1253.91
-1297.65
-1342.85
-1388.84
-1436.86
-1485.12
-1536.09
-1586.78
-1640.45
-1693.82
-1749.79
-1806.08
-1864.25
-1923.55
-1984.26
-2045.98
-2109.54
-2172.7
-2238.29
-2301.63
-2365.02
-2422.2
45.5275
48.7956
52.1701
55.5152
58.6939
61.579
64.0811
66.1458
67.7462
68.8751
69.5405
69.7622
69.5691
68.9929
68.0628
66.8002
65.2278
63.3279
61.1301
58.6607
55.9194
52.9171
49.6626
46.16
42.412
38.4235
34.1993
29.7393
25.0429
20.1111
14.9368
9.52702
3.89105
-1.99029
-8.10322
-14.4551
-21.0807
-27.9275
-35.0325
-42.4049
-49.9861
-57.886
-66.0299
-74.4434
-83.1699
-92.1094
-101.391
-110.909
-120.766
-130.919
-141.357
-152.16
-163.212
-174.672
-186.408
-198.546
-210.982
-223.814
-236.996
-250.575
-264.568
-278.932
-293.746
-308.925
-324.614
-340.694
-357.313
-374.344
-391.951
-409.996
-428.657
-447.793
-467.551
-487.834
-508.789
-530.32
-552.551
-575.403
-598.986
-623.25
-648.283
-674.05
-700.623
-727.975
-756.207
-785.301
-815.262
-846.178
-878.002
-910.801
-944.574
-979.412
-1015.19
-1052.18
-1090.11
-1129.32
-1169.51
-1210.98
-1253.58
-1297.31
-1342.51
-1388.5
-1436.52
-1484.78
-1535.74
-1586.43
-1640.1
-1693.47
-1749.43
-1805.73
-1863.89
-1923.19
-1983.9
-2045.61
-2109.18
-2172.35
-2237.94
-2301.34
-2364.78
-2422.07
47.4334
50.2645
53.1741
56.0617
58.8337
61.3891
63.6464
65.5465
67.0503
68.1365
68.7999
69.0497
68.9057
68.3912
67.5287
66.3352
64.8258
62.9859
60.8417
58.4277
55.7385
52.784
49.5733
46.1108
42.4001
38.4459
34.2529
29.8208
25.1485
20.2381
15.0844
9.69318
4.07428
-1.79018
-7.89097
-14.2308
-20.8433
-27.6831
-34.7769
-42.1414
-49.7202
-57.6098
-65.7518
-74.1596
-82.8791
-91.819
-101.093
-110.612
-120.464
-130.615
-141.051
-151.85
-162.904
-174.36
-186.097
-198.232
-210.669
-223.499
-236.682
-250.26
-264.253
-278.617
-293.43
-308.611
-324.299
-340.379
-356.997
-374.029
-391.635
-409.682
-428.341
-447.478
-467.235
-487.518
-508.472
-530.003
-552.232
-575.084
-598.667
-622.93
-647.961
-673.728
-700.299
-727.65
-755.88
-784.973
-814.933
-845.847
-877.67
-910.467
-944.237
-979.074
-1014.85
-1051.84
-1089.77
-1128.98
-1169.16
-1210.63
-1253.23
-1296.96
-1342.15
-1388.14
-1436.15
-1484.41
-1535.37
-1586.06
-1639.73
-1693.1
-1749.06
-1805.35
-1863.51
-1922.81
-1983.52
-2045.23
-2108.79
-2171.98
-2237.56
-2301.03
-2364.58
-2421.98
48.8121
51.2969
53.8395
56.3585
58.7913
61.0592
63.0917
64.8311
66.2332
67.2688
67.9238
68.1983
68.1025
67.651
66.8585
65.7374
64.2972
62.5239
60.4407
58.0899
55.4608
52.5624
49.4032
45.9886
42.3224
38.4092
34.2534
29.8547
25.2117
20.3277
15.1996
9.83153
4.23353
-1.61047
-7.69568
-14.0207
-20.6171
-27.4472
-34.528
-41.8817
-49.4566
-57.3341
-65.472
-73.8732
-82.5837
-91.5227
-100.789
-110.307
-120.152
-130.3
-140.734
-151.528
-162.584
-174.034
-185.772
-197.902
-210.34
-223.167
-236.351
-249.929
-263.92
-278.284
-293.096
-308.278
-323.965
-340.047
-356.662
-373.695
-391.3
-409.347
-428.005
-447.142
-466.898
-487.181
-508.134
-529.665
-551.893
-574.744
-598.326
-622.588
-647.618
-673.384
-699.954
-727.304
-755.532
-784.623
-814.582
-845.494
-877.314
-910.111
-943.877
-978.713
-1014.49
-1051.47
-1089.4
-1128.61
-1168.79
-1210.26
-1252.85
-1296.58
-1341.77
-1387.75
-1435.76
-1484.02
-1534.98
-1585.67
-1639.33
-1692.7
-1748.65
-1804.95
-1863.1
-1922.4
-1983.1
-2044.82
-2108.38
-2171.58
-2237.16
-2300.72
-2364.36
-2421.86
49.7294
51.9314
54.1774
56.3956
58.5439
60.5621
62.3906
63.9766
65.276
66.2563
66.8979
67.193
67.1429
66.7529
66.0306
64.9836
63.6206
61.9202
59.9068
57.6271
55.0668
52.233
49.1342
45.7758
42.1622
38.2976
34.1857
29.8266
25.2193
20.3677
15.2709
9.93156
4.35905
-1.46034
-7.52576
-13.8328
-20.4094
-27.2262
-34.2918
-41.6318
-49.2004
-57.0639
-65.1948
-73.5877
-82.2872
-91.2238
-100.48
-109.996
-119.833
-129.977
-140.407
-151.196
-162.252
-173.697
-185.435
-197.559
-209.996
-222.82
-236.005
-249.581
-263.57
-277.934
-292.745
-307.928
-323.612
-339.695
-356.308
-373.342
-390.944
-408.993
-427.648
-446.786
-466.54
-486.824
-507.775
-529.306
-551.532
-574.383
-597.963
-622.225
-647.253
-673.017
-699.585
-726.935
-755.161
-784.25
-814.207
-845.117
-876.935
-909.73
-943.493
-978.328
-1014.1
-1051.08
-1089.01
-1128.21
-1168.39
-1209.86
-1252.45
-1296.17
-1341.36
-1387.34
-1435.35
-1483.6
-1534.56
-1585.24
-1638.91
-1692.27
-1748.22
-1804.51
-1862.67
-1921.96
-1982.67
-2044.38
-2107.94
-2171.17
-2236.74
-2300.39
-2364.14
-2421.75
50.236
52.2013
54.2015
56.1698
58.0776
59.8786
61.5234
62.9658
64.1648
65.0876
65.7112
66.0217
66.012
65.6796
65.0251
64.0515
62.7762
61.1539
59.2198
57.0194
54.5362
51.7762
48.747
45.454
41.9015
38.0934
34.0331
29.7209
25.1566
20.3446
15.2857
9.98142
4.43978
-1.35023
-7.39092
-13.6759
-20.2286
-27.028
-34.0757
-41.3983
-48.9576
-56.8048
-64.9251
-73.308
-81.9941
-90.9259
-100.171
-109.682
-119.51
-129.648
-140.073
-150.855
-161.911
-173.348
-185.085
-197.203
-209.638
-222.459
-235.643
-249.217
-263.204
-277.567
-292.375
-307.559
-323.241
-339.325
-355.934
-372.969
-390.569
-408.619
-427.271
-446.409
-466.16
-486.445
-507.394
-528.925
-551.149
-573.999
-597.577
-621.838
-646.864
-672.627
-699.192
-726.541
-754.765
-783.853
-813.808
-844.715
-876.531
-909.325
-943.084
-977.917
-1013.69
-1050.67
-1088.59
-1127.79
-1167.97
-1209.43
-1252.02
-1295.74
-1340.93
-1386.9
-1434.91
-1483.16
-1534.11
-1584.79
-1638.45
-1691.82
-1747.76
-1804.05
-1862.2
-1921.49
-1982.2
-2043.92
-2107.47
-2170.73
-2236.29
-2300.04
-2363.92
-2421.63
50.369
52.1315
53.9234
55.6805
57.3828
58.9946
60.4754
61.7855
62.8886
63.7532
64.3544
64.6734
64.6969
64.4156
63.8249
62.9208
61.7478
60.2049
58.3596
56.2461
53.8485
51.1714
48.2213
45.0029
41.5207
37.7778
33.7773
29.5203
25.0074
20.2432
15.2299
9.96776
4.46321
-1.29198
-7.3022
-13.5602
-20.0844
-26.8615
-33.8878
-41.189
-48.7351
-56.5633
-64.6691
-73.0392
-81.7093
-90.6335
-99.8656
-109.369
-119.186
-129.315
-139.736
-150.508
-161.563
-172.991
-184.725
-196.835
-209.268
-222.085
-235.267
-248.839
-262.822
-277.184
-291.988
-307.173
-322.851
-338.936
-355.541
-372.576
-390.172
-408.224
-426.872
-446.01
-465.759
-486.043
-506.99
-528.521
-550.742
-573.591
-597.167
-621.427
-646.45
-672.212
-698.775
-726.123
-754.345
-783.43
-813.384
-844.288
-876.101
-908.894
-942.649
-977.48
-1013.25
-1050.22
-1088.14
-1127.34
-1167.51
-1208.97
-1251.56
-1295.28
-1340.46
-1386.44
-1434.44
-1482.68
-1533.63
-1584.31
-1637.97
-1691.33
-1747.28
-1803.56
-1861.71
-1921
-1981.7
-2043.43
-2106.97
-2170.26
-2235.81
-2299.68
-2363.7
-2421.51
50.1545
51.7401
53.3526
54.9285
56.4536
57.9002
59.2351
60.4249
61.4376
62.2439
62.8179
63.1377
63.1855
62.9478
62.4151
61.5695
60.5255
59.055
57.3063
55.2866
52.9825
50.3971
47.5353
44.4011
40.9984
37.3299
33.3984
29.2059
24.7539
20.0469
15.0876
9.87551
4.4151
-1.29904
-7.27225
-13.4974
-19.9879
-26.7368
-33.7377
-41.013
-48.5409
-56.3469
-64.4335
-72.7877
-81.4388
-90.3519
-99.5684
-109.062
-118.866
-128.984
-139.397
-150.159
-161.211
-172.628
-184.357
-196.458
-208.888
-221.699
-234.879
-248.447
-262.425
-276.784
-291.584
-306.77
-322.443
-338.528
-355.128
-372.163
-389.756
-407.807
-426.452
-445.59
-465.335
-485.619
-506.562
-528.094
-550.311
-573.159
-596.733
-620.991
-646.012
-671.772
-698.332
-725.679
-753.898
-782.98
-812.932
-843.833
-875.643
-908.435
-942.185
-977.015
-1012.78
-1049.75
-1087.67
-1126.87
-1167.03
-1208.49
-1251.07
-1294.79
-1339.97
-1385.94
-1433.93
-1482.18
-1533.12
-1583.8
-1637.46
-1690.82
-1746.75
-1803.04
-1861.18
-1920.47
-1981.17
-2042.9
-2106.44
-2169.76
-2235.3
-2299.3
-2363.46
-2421.37
49.611
51.0406
52.4957
53.9139
55.2847
56.5865
57.792
58.8727
59.8006
60.5484
61.0904
61.4033
61.4669
61.266
60.7843
59.9742
59.1045
57.6866
56.0388
54.1195
51.9162
49.4308
46.6663
43.6256
40.3119
36.7273
32.8748
28.7572
24.3767
19.7371
14.8411
9.68758
4.27925
-1.38671
-7.31547
-13.5008
-19.9516
-26.6659
-33.6361
-40.8803
-48.3843
-56.164
-64.2266
-72.5607
-81.1896
-90.0875
-99.2855
-108.766
-118.554
-128.658
-139.062
-149.811
-160.857
-172.262
-183.984
-196.075
-208.5
-221.304
-234.48
-248.042
-262.014
-276.371
-291.165
-306.35
-322.019
-338.102
-354.697
-371.73
-389.318
-407.37
-426.01
-445.147
-464.888
-485.171
-506.111
-527.642
-549.856
-572.702
-596.273
-620.529
-645.547
-671.305
-697.862
-725.207
-753.423
-782.503
-812.453
-843.35
-875.156
-907.947
-941.692
-976.52
-1012.28
-1049.25
-1087.16
-1126.36
-1166.52
-1207.98
-1250.55
-1294.27
-1339.44
-1385.41
-1433.4
-1481.64
-1532.58
-1583.26
-1636.91
-1690.27
-1746.2
-1802.49
-1860.62
-1919.91
-1980.6
-2042.35
-2105.87
-2169.24
-2234.77
-2298.89
-2363.2
-2421.23
48.7492
50.0399
51.3552
52.6347
53.8702
55.0445
56.1346
57.1161
57.9638
58.6529
59.1588
59.4584
59.5317
59.3637
58.9369
58.2648
57.341
56.0661
54.5347
52.7233
50.6278
48.2499
45.5908
42.6524
39.437
35.9465
32.1838
28.1524
23.8546
19.2933
14.4706
9.38472
4.03728
-1.57236
-7.4483
-13.5858
-19.99
-26.6622
-33.5954
-40.8028
-48.2761
-56.0246
-64.0575
-72.3667
-80.9696
-89.8476
-99.0234
-108.486
-118.255
-128.344
-138.735
-149.469
-160.507
-171.897
-183.61
-195.688
-208.106
-220.902
-234.072
-247.628
-261.592
-275.944
-290.732
-305.916
-321.577
-337.659
-354.247
-371.278
-388.861
-406.913
-425.546
-444.682
-464.418
-484.7
-505.637
-527.166
-549.375
-572.22
-595.787
-620.041
-645.055
-670.811
-697.363
-724.708
-752.92
-781.997
-811.944
-842.837
-874.64
-907.429
-941.168
-975.995
-1011.75
-1048.72
-1086.63
-1125.82
-1165.98
-1207.43
-1250
-1293.71
-1338.88
-1384.84
-1432.83
-1481.07
-1532.01
-1582.68
-1636.33
-1689.69
-1745.61
-1801.9
-1860.02
-1919.31
-1980
-2041.76
-2105.27
-2168.68
-2234.2
-2298.46
-2362.93
-2421.07
47.5708
48.7368
49.9282
51.0857
52.2019
53.2633
54.2497
55.1399
55.9115
56.5421
57.0088
57.2905
57.3683
57.2212
56.8168
56.2871
55.3763
54.2089
52.7829
51.08
49.0966
46.8318
44.2852
41.4572
38.3493
34.9632
31.3018
27.3684
23.1651
18.6933
13.954
8.94544
3.66854
-1.87555
-7.68933
-13.7697
-20.1194
-26.7413
-33.6301
-40.7937
-48.2286
-55.9399
-63.9373
-72.2159
-80.7881
-89.6408
-98.7902
-108.231
-117.978
-128.047
-138.424
-149.139
-160.165
-171.538
-183.238
-195.302
-207.711
-220.496
-233.658
-247.206
-261.161
-275.506
-290.287
-305.468
-321.121
-337.199
-353.779
-370.808
-388.385
-406.435
-425.061
-444.194
-463.925
-484.206
-505.138
-526.665
-548.869
-571.712
-595.274
-619.526
-644.536
-670.289
-696.837
-724.18
-752.389
-781.461
-811.406
-842.294
-874.093
-906.881
-940.613
-975.439
-1011.19
-1048.15
-1086.06
-1125.25
-1165.4
-1206.85
-1249.41
-1293.12
-1338.29
-1384.25
-1432.23
-1480.46
-1531.39
-1582.07
-1635.71
-1689.07
-1744.99
-1801.27
-1859.38
-1918.68
-1979.36
-2041.13
-2104.63
-2168.09
-2233.61
-2298
-2362.63
-2420.9
46.0746
47.1279
48.2112
49.2612
50.2716
51.2316
52.1238
52.9294
53.6289
54.202
54.6287
54.8914
54.9698
54.8368
54.5283
53.9709
53.1523
52.0901
50.7666
49.1725
47.3032
45.1554
42.7268
40.0164
37.0247
33.7534
30.2047
26.3812
22.284
17.9127
13.2671
8.34598
3.15012
-2.318
-8.05928
-14.0723
-20.3584
-26.921
-33.7563
-40.8684
-48.2562
-55.9233
-63.8785
-72.12
-80.656
-89.4773
-98.5953
-108.009
-117.73
-127.775
-138.133
-148.827
-159.836
-171.189
-182.873
-194.92
-207.318
-220.091
-233.242
-246.779
-260.723
-275.061
-289.833
-305.008
-320.653
-336.725
-353.296
-370.321
-387.89
-405.938
-424.556
-443.685
-463.41
-483.689
-504.614
-526.14
-548.337
-571.177
-594.735
-618.983
-643.988
-669.739
-696.281
-723.622
-751.826
-780.895
-810.836
-841.72
-873.513
-906.3
-940.025
-974.848
-1010.59
-1047.56
-1085.45
-1124.64
-1164.78
-1206.24
-1248.79
-1292.5
-1337.66
-1383.61
-1431.59
-1479.81
-1530.74
-1581.41
-1635.05
-1688.41
-1744.32
-1800.61
-1858.71
-1918.01
-1978.68
-2040.47
-2103.95
-2167.47
-2232.97
-2297.51
-2362.31
-2420.71
44.2653
45.2172
46.2038
47.1569
48.0716
48.9392
49.745
50.4725
51.1046
51.623
52.0088
52.2448
52.3183
52.2294
51.9261
51.4054
50.672
49.6989
48.4727
46.9853
45.2299
43.2009
40.8942
38.3075
35.4404
32.2936
28.8685
25.1661
21.1857
16.9253
12.3838
7.56057
2.45708
-2.92353
-8.58098
-14.5153
-20.7276
-27.2209
-33.9926
-41.044
-48.3755
-55.9901
-63.8958
-72.0927
-80.5861
-89.3692
-98.4498
-107.83
-117.522
-127.538
-137.872
-148.541
-159.528
-170.858
-182.523
-194.55
-206.933
-219.691
-232.828
-246.352
-260.282
-274.61
-289.371
-304.54
-320.173
-336.239
-352.798
-369.819
-387.378
-405.422
-424.03
-443.156
-462.872
-483.148
-504.067
-525.589
-547.78
-570.616
-594.169
-618.413
-643.412
-669.159
-695.695
-723.034
-751.234
-780.296
-810.234
-841.113
-872.9
-905.686
-939.402
-974.224
-1009.96
-1046.92
-1084.82
-1124
-1164.14
-1205.58
-1248.13
-1291.84
-1336.99
-1382.94
-1430.91
-1479.13
-1530.05
-1580.72
-1634.36
-1687.71
-1743.62
-1799.9
-1857.99
-1917.29
-1977.95
-2039.77
-2103.23
-2166.81
-2232.31
-2296.98
-2361.96
-2420.5
42.149
43.0096
43.9047
44.7675
45.5936
46.3768
47.1041
47.7615
48.3333
48.7999
49.1313
49.327
49.4279
49.3248
49.0515
48.5907
47.921
47.025
45.8897
44.5047
42.8609
40.9507
38.7684
36.3102
33.5745
30.561
27.269
23.6972
19.843
15.7031
11.2759
6.56173
1.5628
-3.71773
-9.27919
-15.1228
-21.25
-27.6629
-34.3597
-41.3401
-48.605
-56.158
-64.006
-72.15
-80.5931
-89.3302
-98.3668
-107.708
-117.363
-127.346
-137.652
-148.289
-159.25
-170.551
-182.193
-194.197
-206.562
-219.301
-232.421
-245.929
-259.843
-274.159
-288.907
-304.066
-319.686
-335.742
-352.289
-369.302
-386.851
-404.889
-423.487
-442.606
-462.314
-482.586
-503.497
-525.015
-547.198
-570.028
-593.575
-617.814
-642.807
-668.549
-695.079
-722.415
-750.609
-779.666
-809.6
-840.473
-872.253
-905.037
-938.745
-973.564
-1009.3
-1046.25
-1084.14
-1123.32
-1163.45
-1204.9
-1247.44
-1291.14
-1336.28
-1382.22
-1430.19
-1478.41
-1529.32
-1579.99
-1633.62
-1686.98
-1742.87
-1799.16
-1857.23
-1916.54
-1977.19
-2039.03
-2102.47
-2166.11
-2231.61
-2296.43
-2361.59
-2420.27
39.7162
40.4928
41.3023
42.0816
42.8268
43.5327
44.1883
44.7845
45.3051
45.7375
46.0227
46.1631
46.1931
46.141
45.9132
45.4983
44.8844
44.0582
43.0069
41.7185
40.1824
38.3893
36.332
34.0055
31.4066
28.5328
25.381
21.9474
18.2273
14.2168
9.91417
5.32087
0.439376
-4.72781
-10.1805
-15.9208
-21.9507
-28.2712
-34.8809
-41.7789
-48.9664
-56.4476
-64.2285
-72.3104
-80.6943
-89.3768
-98.3618
-107.656
-117.269
-127.213
-137.482
-148.083
-159.01
-170.279
-181.893
-193.871
-206.213
-218.93
-232.028
-245.516
-259.411
-273.712
-288.444
-303.591
-319.194
-335.238
-351.771
-368.776
-386.311
-404.342
-422.927
-442.038
-461.736
-482.003
-502.905
-524.416
-546.59
-569.415
-592.954
-617.188
-642.172
-667.909
-694.432
-721.764
-749.953
-779.003
-808.932
-839.798
-871.571
-904.353
-938.051
-972.867
-1008.6
-1045.54
-1083.42
-1122.6
-1162.72
-1204.17
-1246.7
-1290.4
-1335.53
-1381.47
-1429.42
-1477.64
-1528.55
-1579.22
-1632.84
-1686.2
-1742.07
-1798.37
-1856.42
-1915.74
-1976.37
-2038.25
-2101.67
-2165.37
-2230.87
-2295.84
-2361.18
-2420.02
36.9476
37.6454
38.3783
39.0818
39.7529
40.3854
40.9665
41.4996
41.9806
42.3298
42.5657
42.7495
42.8053
42.7305
42.5093
42.1223
41.5534
40.7883
39.8132
38.615
37.1816
35.5026
33.5695
31.376
28.9166
26.1862
23.179
19.8886
16.3091
12.4364
8.26912
3.80892
-0.941934
-5.98233
-11.3132
-16.9373
-22.8569
-29.0722
-35.5818
-42.3851
-49.4838
-56.8822
-64.5857
-72.595
-80.9097
-89.5278
-98.4526
-107.692
-117.256
-127.152
-137.377
-147.935
-158.822
-170.053
-181.634
-193.581
-205.895
-218.584
-231.656
-245.12
-258.993
-273.276
-287.988
-303.119
-318.703
-334.732
-351.248
-368.241
-385.762
-403.783
-422.352
-441.454
-461.141
-481.4
-502.291
-523.795
-545.959
-568.776
-592.307
-616.533
-641.509
-667.24
-693.754
-721.082
-749.264
-778.306
-808.229
-839.089
-870.854
-903.632
-937.32
-972.133
-1007.85
-1044.8
-1082.67
-1121.84
-1161.95
-1203.4
-1245.92
-1289.62
-1334.73
-1380.67
-1428.62
-1476.83
-1527.73
-1578.4
-1632.01
-1685.37
-1741.23
-1797.54
-1855.57
-1914.9
-1975.51
-2037.42
-2100.82
-2164.59
-2230.09
-2295.21
-2360.74
-2419.74
33.8311
34.4532
35.1063
35.7318
36.3354
36.9821
37.476
37.9163
38.3193
38.6573
38.9028
39.0547
39.1004
39.0235
38.8102
38.4457
37.9151
37.2039
36.2978
35.1829
33.8466
32.2775
30.4661
28.4043
26.0842
23.4978
20.6367
17.4929
14.0597
10.333
6.31177
1.99693
-2.61044
-7.51108
-12.7074
-18.2024
-23.9983
-30.095
-36.4912
-43.1869
-50.1845
-57.4882
-65.1025
-73.0275
-81.2617
-89.8045
-98.6596
-107.835
-117.34
-127.18
-137.352
-147.858
-158.699
-169.886
-181.428
-193.338
-205.617
-218.273
-231.314
-244.75
-258.597
-272.857
-287.545
-302.656
-318.217
-334.228
-350.725
-367.704
-385.207
-403.214
-421.767
-440.856
-460.53
-480.78
-501.659
-523.153
-545.305
-568.114
-591.635
-615.852
-640.817
-666.541
-693.046
-720.369
-748.543
-777.576
-807.493
-838.345
-870.1
-902.875
-936.552
-971.36
-1007.07
-1044.01
-1081.87
-1121.04
-1161.14
-1202.59
-1245.09
-1288.79
-1333.9
-1379.83
-1427.77
-1475.97
-1526.86
-1577.53
-1631.13
-1684.5
-1740.35
-1796.66
-1854.66
-1914.01
-1974.6
-2036.55
-2099.92
-2163.77
-2229.28
-2294.55
-2360.26
-2419.44
30.3695
30.9587
31.5353
32.0968
32.6383
33.1521
33.6239
34.0426
34.4046
34.7012
34.9207
35.0514
35.0827
35.002
34.7963
34.452
33.9554
33.2923
32.4487
31.4108
30.1655
28.7012
27.0071
25.0732
22.8891
20.4444
17.7291
14.7339
11.4521
7.87963
4.01458
-0.143612
-4.59592
-9.34499
-14.3945
-19.7477
-25.4066
-31.371
-37.6402
-44.2151
-51.0987
-58.2949
-65.8068
-73.6343
-81.7757
-90.2315
-99.0061
-108.107
-117.543
-127.316
-137.425
-147.872
-158.657
-169.793
-181.289
-193.155
-205.393
-218.009
-231.013
-244.415
-258.231
-272.464
-287.124
-302.21
-317.744
-333.733
-350.207
-367.169
-384.651
-402.641
-421.173
-440.248
-459.906
-480.145
-501.009
-522.492
-544.63
-567.428
-590.938
-615.145
-640.099
-665.814
-692.308
-719.624
-747.79
-776.812
-806.721
-837.566
-869.309
-902.081
-935.746
-970.548
-1006.25
-1043.19
-1081.04
-1120.2
-1160.29
-1201.73
-1244.23
-1287.93
-1333.02
-1378.95
-1426.87
-1475.07
-1525.94
-1576.62
-1630.21
-1683.59
-1739.41
-1795.73
-1853.71
-1913.07
-1973.64
-2035.63
-2098.97
-2162.91
-2228.42
-2293.84
-2359.74
-2419.11
26.5748
27.0787
27.6183
28.1282
28.6101
29.0634
29.4802
29.8521
30.1712
30.4292
30.6171
30.7248
30.7415
30.6557
30.4556
30.1286
29.6618
29.0417
28.2547
27.2874
26.1268
24.7608
23.1777
21.3654
19.3118
17.005
14.4339
11.589
8.46327
5.05188
1.35147
-2.64092
-6.92861
-11.5159
-16.4075
-21.6067
-27.1152
-32.9338
-39.0625
-45.5031
-52.2591
-59.3336
-66.7289
-74.4447
-82.48
-90.836
-99.5182
-108.533
-117.887
-127.583
-137.618
-147.994
-158.715
-169.792
-181.233
-193.047
-205.236
-217.805
-230.766
-244.129
-257.908
-272.107
-286.734
-301.788
-317.292
-333.253
-349.702
-366.642
-384.1
-402.068
-420.578
-439.634
-459.275
-479.5
-500.347
-521.815
-543.937
-566.723
-590.219
-614.415
-639.354
-665.059
-691.542
-718.849
-747.005
-776.016
-805.916
-836.752
-868.482
-901.249
-934.902
-969.697
-1005.39
-1042.32
-1080.16
-1119.32
-1159.39
-1200.84
-1243.31
-1287.01
-1332.09
-1378.02
-1425.92
-1474.12
-1524.98
-1575.66
-1629.24
-1682.62
-1738.42
-1794.75
-1852.7
-1912.09
-1972.63
-2034.66
-2097.98
-2162
-2227.53
-2293.1
-2359.19
-2418.74
22.4261
22.8636
23.3465
23.8042
24.2321
24.6317
24.9978
25.3233
25.6008
25.8226
25.9803
26.0647
26.066
25.9739
25.7773
25.4646
25.0235
24.4412
23.7049
22.8017
21.7188
20.4437
18.9637
17.2654
15.3358
13.1621
10.7333
8.03962
5.07315
1.82756
-1.70269
-5.52307
-9.63908
-14.0563
-18.7798
-23.8135
-29.1594
-34.819
-40.794
-47.0866
-53.7003
-60.6382
-67.9015
-75.4908
-83.4058
-91.6487
-100.225
-109.141
-118.4
-128.005
-137.954
-148.249
-158.896
-169.904
-181.28
-193.032
-205.162
-217.676
-230.587
-243.904
-257.64
-271.798
-286.385
-301.401
-316.869
-332.8
-349.219
-366.131
-383.56
-401.501
-419.985
-439.021
-458.641
-478.848
-499.674
-521.125
-543.229
-566
-589.481
-613.662
-638.585
-664.279
-690.749
-718.046
-746.191
-775.188
-805.077
-835.904
-867.62
-900.38
-934.02
-968.807
-1004.49
-1041.41
-1079.24
-1118.39
-1158.45
-1199.9
-1242.36
-1286.06
-1331.11
-1377.04
-1424.92
-1473.12
-1523.97
-1574.65
-1628.21
-1681.61
-1737.38
-1793.73
-1851.64
-1911.05
-1971.57
-2033.65
-2096.94
-2161.04
-2226.59
-2292.31
-2358.59
-2418.35
17.9085
18.2889
18.714
19.119
19.4955
19.8455
20.1647
20.4466
20.6845
20.8714
20.9997
21.0611
21.0467
20.9469
20.7515
20.4497
20.03
19.4805
18.789