/*--------------------------------*- C++ -*----------------------------------*\
| =========                 |                                                 |
| \\      /  F ield         | OpenFOAM: The Open Source CFD Toolbox           |
|  \\    /   O peration     | Version:  2412                                  |
|   \\  /    A nd           | Website:  www.openfoam.com                      |
|    \\/     M anipulation  |                                                 |
\*---------------------------------------------------------------------------*/
FoamFile
{
    version     2.0;
    format      ascii;
    arch        "LSB;label=32;scalar=64";
    class       volScalarField;
    location    "1.125";
    object      p;
}
// * * * * * * * * * * * * * * * * * * * * * * * * * * * * * * * * * * * * * //

dimensions      [0 2 -2 0 0 0 0];

internalField   nonuniform List<scalar> 
12600
(
-0.297698
-84.5256
-62.6236
-10.9573
33.3499
67.3344
94.315
116.541
135.387
151.872
166.659
179.889
191.424
201.331
210.137
218.458
226.565
234.06
240.412
245.351
249.307
253.293
258.487
264.832
269.796
271.031
271.553
273.232
276.708
280.038
282.15
283.655
285.32
287.089
288.564
289.677
290.666
291.705
292.755
293.698
294.488
295.175
295.834
296.502
297.159
297.761
298.293
298.781
299.271
299.774
300.266
300.729
301.17
301.621
302.105
302.629
303.19
303.782
304.416
305.082
305.74
306.31
306.694
306.775
306.464
305.661
304.435
302.88
301.236
299.685
298.47
297.616
297.22
297.133
297.282
297.615
298.466
300.278
303.356
307.898
313.23
318.57
323.145
326.563
328.335
327.907
325.424
321.556
317.44
316.466
322.52
338.744
371.12
412.108
451.524
432.581
439.622
452.701
338.043
324.84
360.547
329.419
348.473
326.615
359.411
355.112
345.869
349.21
324.17
292.648
239.796
192.673
176.727
188.746
222.603
269.814
313.937
308.526
287.882
263.165
60.0976
-17.5085
-27.3061
-1.30536
32.1161
63.3661
89.9959
112.417
131.652
148.645
163.873
177.343
189.012
199.133
208.379
217.111
225.43
232.902
239.127
244.072
248.366
253.028
258.722
264.606
268.51
269.748
270.795
273.269
276.949
279.966
281.839
283.374
285.146
286.94
288.384
289.491
290.513
291.591
292.66
293.603
294.391
295.085
295.759
296.44
297.104
297.705
298.236
298.729
299.227
299.736
300.23
300.692
301.135
301.589
302.076
302.6
303.158
303.745
304.374
305.039
305.697
306.27
306.664
306.758
306.463
305.681
304.475
302.938
301.302
299.753
298.527
297.659
297.25
297.156
297.3
297.62
298.439
300.203
303.228
307.735
313.049
318.397
323.002
326.467
328.307
327.955
325.536
321.703
317.556
316.464
322.303
338.175
370.154
410.921
451.019
432.683
439.299
453.671
339.763
324.779
360.535
329.603
348.529
326.494
359.027
355.237
345.933
349.396
324.829
293.644
240.982
193.446
176.826
188.28
221.694
268.793
313.437
308.654
288.263
263.416
86.5518
29.449
4.60543
12.7918
36.9692
64.0756
89.0157
110.88
130.048
147.109
162.37
175.852
187.581
197.868
207.278
216.169
224.558
231.973
238.149
243.196
247.842
253.083
259.038
264.075
266.918
268.439
270.375
273.574
277.293
279.954
281.625
283.188
285.029
286.832
288.261
289.373
290.42
291.518
292.595
293.54
294.331
295.031
295.713
296.401
297.067
297.67
298.201
298.698
299.2
299.711
300.207
300.669
301.112
301.567
302.057
302.581
303.135
303.72
304.349
305.011
305.668
306.243
306.64
306.744
306.463
305.696
304.502
302.972
301.341
299.79
298.562
297.689
297.275
297.177
297.315
297.623
298.42
300.16
303.161
307.644
312.954
318.308
322.927
326.417
328.292
327.983
325.599
321.79
317.63
316.455
322.169
337.874
369.722
410.341
450.688
432.733
439.131
454.194
340.514
324.715
360.538
329.701
348.562
326.447
358.838
355.301
345.959
349.494
325.016
294.047
241.49
193.787
176.866
188.088
221.454
268.428
313.213
308.72
288.417
263.497
95.5093
59.7582
34.5711
31.6935
45.7207
66.9518
89.165
109.888
128.632
145.549
160.758
174.248
186.08
196.561
206.169
215.164
223.509
230.912
237.212
242.538
247.56
252.98
258.57
262.913
265.262
267.451
270.452
274.093
277.589
279.839
281.354
282.971
284.876
286.688
288.11
289.235
290.307
291.425
292.511
293.459
294.256
294.964
295.654
296.35
297.02
297.624
298.158
298.659
299.165
299.679
300.176
300.638
301.083
301.54
302.031
302.555
303.106
303.689
304.315
304.976
305.633
306.211
306.616
306.73
306.464
305.714
304.536
303.02
301.395
299.843
298.606
297.723
297.3
297.197
297.33
297.626
298.396
300.096
303.051
307.5
312.801
318.167
322.812
326.343
328.273
328.024
325.69
321.906
317.717
316.438
321.971
337.381
368.877
409.372
450.262
432.803
438.903
454.986
341.858
324.601
360.542
329.85
348.603
326.324
358.524
355.412
346.015
349.66
325.643
294.888
242.457
194.383
176.903
187.658
220.573
267.536
312.799
308.818
288.721
263.705
103.266
83.1038
62.5933
53.4276
58.2501
72.6766
91.0854
109.951
127.855
144.391
159.424
172.869
184.775
195.407
205.136
214.161
222.479
229.909
236.361
241.995
247.287
252.646
257.749
261.67
264.367
267.267
270.867
274.865
277.755
279.625
281.049
282.755
284.725
286.541
287.956
289.096
290.193
291.33
292.424
293.377
294.179
294.895
295.595
296.297
296.971
297.577
298.113
298.618
299.129
299.646
300.144
300.607
301.053
301.513
302.005
302.528
303.077
303.657
304.281
304.94
305.597
306.178
306.591
306.717
306.467
305.734
304.573
303.068
301.447
299.893
298.65
297.758
297.327
297.218
297.345
297.628
298.369
300.031
302.95
307.37
312.661
318.035
322.704
326.273
328.256
328.065
325.78
322.023
317.804
316.411
321.762
336.909
368.163
408.467
449.756
432.853
438.7
455.681
342.91
324.424
360.549
329.992
348.64
326.234
358.231
355.513
346.06
349.813
325.997
295.538
243.225
194.848
176.9
187.311
220.098
266.887
312.42
308.882
288.937
263.835
112.272
101.169
85.7989
74.7487
73.5577
81.5848
95.2603
111.34
127.821
143.668
158.376
171.706
183.64
194.366
204.16
213.189
221.488
228.974
235.606
241.488
246.921
252.132
256.834
260.605
263.782
267.324
271.317
275.087
277.585
279.277
280.719
282.535
284.573
286.388
287.797
288.952
290.075
291.23
292.332
293.29
294.098
294.823
295.532
296.242
296.92
297.527
298.066
298.576
299.091
299.611
300.11
300.574
301.022
301.483
301.976
302.498
303.044
303.623
304.244
304.902
305.559
306.144
306.565
306.704
306.471
305.757
304.612
303.119
301.504
299.947
298.696
297.793
297.353
297.239
297.361
297.629
298.338
299.958
302.832
307.216
312.5
317.887
322.585
326.198
328.241
328.113
325.88
322.147
317.89
316.371
321.518
336.355
367.284
407.396
449.116
432.883
438.495
456.375
344.085
324.15
360.553
330.142
348.674
326.105
357.887
355.631
346.118
349.994
326.592
296.339
244.108
195.336
176.843
186.817
219.195
265.963
311.938
308.919
289.179
264.013
120.952
114.447
103.559
93.7032
89.8245
92.9943
101.868
114.42
128.755
143.456
157.611
170.721
182.622
193.395
203.227
212.26
220.562
228.116
234.902
240.964
246.469
251.526
255.996
259.822
263.459
267.433
271.535
274.979
277.213
278.68
280.357
282.355
284.421
286.233
287.632
288.804
289.953
291.126
292.237
293.199
294.013
294.746
295.466
296.183
296.865
297.474
298.016
298.531
299.051
299.574
300.073
300.539
300.988
301.452
301.946
302.466
303.01
303.586
304.205
304.861
305.519
306.107
306.538
306.691
306.476
305.782
304.655
303.174
301.563
300.003
298.742
297.828
297.379
297.258
297.375
297.627
298.302
299.878
302.707
307.055
312.331
317.731
322.46
326.12
328.228
328.166
325.987
322.277
317.973
316.312
321.239
335.749
366.3
406.212
448.276
432.873
438.288
456.98
345.163
323.735
360.545
330.29
348.701
325.971
357.508
355.751
346.176
350.186
327.086
297.09
244.905
195.733
176.712
186.321
218.471
265.062
311.387
308.9
289.361
264.155
128.821
124.814
117.406
109.759
105.306
105.538
110.511
119.427
131.032
144.002
157.215
169.899
181.666
192.438
202.298
211.353
219.684
227.309
234.214
240.404
245.954
250.928
255.321
259.292
263.267
267.449
271.448
274.574
276.641
278.231
280.022
282.158
284.308
286.069
287.461
288.652
289.827
291.019
292.137
293.103
293.923
294.667
295.397
296.122
296.807
297.417
297.963
298.483
299.009
299.534
300.035
300.501
300.953
301.418
301.913
302.432
302.973
303.546
304.163
304.818
305.476
306.069
306.509
306.677
306.482
305.809
304.7
303.231
301.625
300.06
298.789
297.863
297.402
297.276
297.387
297.623
298.262
299.789
302.568
306.878
312.147
317.564
322.327
326.039
328.217
328.227
326.103
322.411
318.049
316.231
320.916
335.068
365.339
404.857
447.165
432.798
438.059
457.477
346.158
323.128
360.51
330.426
348.717
325.811
357.072
355.878
346.24
350.398
327.691
297.862
245.655
196.044
176.487
185.681
217.464
263.98
310.721
308.813
289.505
264.308
136.198
133.814
128.761
123.054
119.017
117.928
120.307
126.127
134.87
145.645
157.428
169.327
180.755
191.436
201.309
210.407
218.793
226.496
233.506
239.803
245.414
250.387
254.808
258.93
263.084
267.272
271.064
273.96
276.007
277.78
279.788
282.011
284.128
285.939
287.289
288.495
289.7
290.909
292.035
293.004
293.83
294.583
295.325
296.058
296.746
297.358
297.907
298.433
298.964
299.493
299.994
300.462
300.916
301.383
301.878
302.395
302.934
303.504
304.118
304.771
305.43
306.028
306.479
306.663
306.489
305.838
304.748
303.292
301.69
300.119
298.836
297.895
297.423
297.29
297.395
297.614
298.214
299.69
302.417
306.686
311.949
317.385
322.186
325.955
328.217
328.296
326.229
322.55
318.117
316.121
320.545
334.312
364.042
403.318
445.716
432.623
437.779
457.823
347.243
322.274
360.425
330.531
348.716
325.627
356.57
356.004
346.306
350.632
328.282
298.577
246.272
196.221
176.155
185.043
216.485
262.813
309.928
308.644
289.578
264.442
143.252
141.956
138.372
134.08
130.802
129.397
130.322
133.887
140.107
148.573
158.552
169.246
180.003
190.396
200.201
209.336
217.798
225.598
232.722
239.141
244.853
249.896
254.4
258.631
262.825
266.897
270.474
273.252
275.399
277.405
279.599
281.898
283.996
285.671
287.114
288.345
289.571
290.799
291.93
292.9
293.732
294.497
295.251
295.991
296.682
297.295
297.848
298.381
298.918
299.449
299.951
300.42
300.876
301.346
301.84
302.355
302.891
303.458
304.07
304.721
305.38
305.984
306.447
306.648
306.496
305.868
304.798
303.356
301.756
300.178
298.881
297.923
297.438
297.299
297.398
297.6
298.16
299.581
302.251
306.476
311.735
317.192
322.036
325.868
328.2
328.375
326.365
322.692
318.17
315.977
320.119
333.469
362.894
401.588
443.875
432.304
437.428
457.998
347.743
321.112
360.257
330.576
348.689
325.411
355.988
356.126
346.372
350.893
328.922
299.216
246.722
196.247
175.702
184.18
215.299
261.478
308.979
308.376
289.579
264.571
149.922
149.341
146.727
143.467
140.942
139.665
139.901
142.02
146.298
152.677
160.751
169.939
179.666
189.465
199.005
208.084
216.604
224.516
231.782
238.36
244.221
249.394
254.011
258.313
262.468
266.389
269.808
272.575
274.892
277.123
279.466
281.788
283.843
285.516
286.874
288.178
289.459
290.688
291.823
292.794
293.632
294.409
295.175
295.922
296.614
297.229
297.786
298.326
298.869
299.402
299.905
300.375
300.834
301.306
301.8
302.313
302.845
303.408
304.017
304.666
305.327
305.936
306.411
306.631
306.503
305.9
304.851
303.422
301.825
300.236
298.923
297.946
297.446
297.299
297.393
297.578
298.095
299.458
302.069
306.247
311.503
316.985
321.877
325.779
328.208
328.465
326.513
322.835
318.206
315.793
319.631
332.53
361.448
399.672
441.622
431.811
437.003
457.964
349.166
319.59
359.962
330.521
348.627
325.157
355.311
356.238
346.435
351.181
329.57
299.72
246.953
196.094
175.123
183.327
214.052
260.002
307.852
307.995
289.49
264.684
156.186
156.102
154.206
151.707
149.778
148.75
148.735
150.022
152.945
157.636
163.953
171.55
180.005
188.906
197.9
206.719
215.181
223.167
230.588
237.36
243.424
248.784
253.55
257.923
262.037
265.844
269.188
272.02
274.522
276.946
279.375
281.68
283.677
285.313
286.707
288.004
289.314
290.6
291.713
292.684
293.529
294.319
295.097
295.85
296.543
297.159
297.722
298.27
298.818
299.354
299.857
300.329
300.791
301.264
301.757
302.267
302.795
303.355
303.96
304.607
305.268
305.883
306.372
306.612
306.508
305.932
304.905
303.49
301.895
300.297
298.962
297.962
297.444
297.287
297.376
297.546
298.021
299.322
301.867
305.996
311.251
316.763
321.708
325.687
328.215
328.569
326.674
322.978
318.221
315.56
319.074
331.493
359.99
397.569
438.989
431.149
436.519
457.668
349.115
317.681
359.483
330.305
348.519
324.857
354.526
356.33
346.486
351.523
330.239
300.034
246.925
195.742
174.409
182.293
212.629
258.347
306.523
307.489
289.3
264.783
162.099
162.378
161.028
159.083
157.592
156.815
156.763
157.61
159.646
163.079
167.929
174.039
181.151
188.956
197.146
205.448
213.645
221.566
229.074
236.036
242.341
247.945
252.917
257.412
261.549
265.326
268.679
271.62
274.291
276.847
279.31
281.57
283.501
285.115
286.528
287.875
289.197
290.453
291.629
292.578
293.424
294.229
295.019
295.776
296.469
297.087
297.656
298.211
298.765
299.303
299.807
300.28
300.745
301.22
301.712
302.218
302.741
303.297
303.899
304.543
305.204
305.825
306.328
306.588
306.512
305.964
304.961
303.56
301.966
300.358
298.996
297.969
297.428
297.259
297.344
297.502
297.934
299.169
301.645
305.721
310.976
316.523
321.529
325.594
328.234
328.689
326.848
323.12
318.21
315.275
318.443
330.345
358.334
395.267
436.071
430.364
435.98
457.103
349.507
315.401
358.753
329.845
348.345
324.512
353.627
356.387
346.505
351.849
330.899
300.089
246.617
195.164
173.553
181.157
211.093
256.517
304.974
306.842
288.991
264.86
167.705
168.241
167.298
165.767
164.607
164.049
164.042
164.666
166.145
168.692
172.401
177.24
183.081
189.729
196.954
204.523
212.223
219.872
227.305
234.358
240.875
246.753
251.998
256.703
260.964
264.817
268.262
271.338
274.15
276.787
279.245
281.444
283.325
284.927
286.366
287.751
289.103
290.365
291.461
292.465
293.329
294.14
294.942
295.701
296.393
297.012
297.587
298.151
298.71
299.249
299.754
300.229
300.697
301.173
301.663
302.165
302.683
303.234
303.831
304.472
305.133
305.76
306.277
306.56
306.512
305.994
305.017
303.632
302.038
300.41
299.025
297.965
297.396
297.212
297.291
297.441
297.832
298.999
301.399
305.417
310.676
316.263
321.338
325.499
328.262
328.826
327.037
323.259
318.171
314.936
317.73
329.081
356.563
392.741
433.012
429.507
435.346
456.329
349.502
312.782
357.705
329.034
348.094
324.116
352.604
356.389
346.513
352.353
331.539
299.813
246.012
194.325
172.538
179.842
209.381
254.495
303.196
306.038
288.545
264.912
173.025
173.73
173.097
171.892
170.992
170.61
170.665
171.178
172.313
174.254
177.117
180.934
185.666
191.211
197.422
204.127
211.149
218.32
225.473
232.44
239.044
245.144
250.678
255.667
260.165
264.208
267.825
271.067
274.009
276.705
279.148
281.298
283.145
284.754
286.233
287.648
289.014
290.273
291.38
292.331
293.216
294.066
294.861
295.624
296.315
296.935
297.517
298.089
298.653
299.193
299.699
300.177
300.647
301.124
301.611
302.108
302.621
303.166
303.758
304.394
305.054
305.687
306.219
306.525
306.507
306.022
305.072
303.705
302.112
300.467
299.048
297.948
297.344
297.14
297.212
297.359
297.714
298.809
301.126
305.082
310.348
315.982
321.136
325.401
328.302
328.982
327.241
323.394
318.1
314.54
316.928
327.683
354.613
389.966
429.93
428.585
434.52
455.519
349.576
309.85
356.272
327.732
347.747
323.688
351.452
356.314
346.44
352.764
332.115
299.142
245.08
193.196
171.327
178.322
207.509
252.275
301.185
305.056
287.937
264.925
178.078
178.893
178.501
177.555
176.858
176.612
176.727
177.186
178.105
179.635
181.886
184.915
188.731
193.298
198.538
204.342
210.582
217.122
223.815
230.498
237.007
243.183
248.925
254.192
258.984
263.31
267.185
270.645
273.742
276.515
278.972
281.111
282.961
284.602
286.123
287.574
288.943
290.183
291.275
292.239
293.115
293.963
294.812
295.553
296.235
296.857
297.446
298.025
298.593
299.135
299.641
300.122
300.595
301.072
301.556
302.047
302.554
303.092
303.677
304.308
304.966
305.604
306.151
306.482
306.496
306.047
305.127
303.779
302.187
300.521
299.066
297.918
297.269
297.038
297.102
297.252
297.575
298.596
300.823
304.711
309.987
315.676
320.919
325.312
328.354
329.16
327.462
323.524
317.996
314.079
316.028
326.135
352.489
386.918
426.847
427.492
433.377
454.897
349.706
306.543
354.404
325.775
347.275
323.251
350.184
356.139
346.296
353.248
332.596
298.014
243.792
191.741
169.869
176.533
205.42
249.831
298.945
303.874
287.14
264.884
182.886
183.768
183.561
182.823
182.286
182.145
182.312
182.746
183.524
184.769
186.58
189.014
192.103
195.846
200.217
205.157
210.588
216.413
222.516
228.758
234.986
241.055
246.847
252.286
257.328
261.948
266.13
269.873
273.193
276.11
278.649
280.845
282.755
284.461
286.037
287.516
288.884
290.11
291.183
292.147
293.042
293.896
294.695
295.48
296.16
296.779
297.376
297.96
298.531
299.073
299.582
300.065
300.541
301.018
301.498
301.983
302.482
303.012
303.589
304.212
304.867
305.509
306.072
306.428
306.477
306.067
305.179
303.854
302.264
300.577
299.076
297.873
297.169
296.901
296.952
297.111
297.412
298.357
300.486
304.3
309.59
315.342
320.687
325.186
328.421
329.36
327.7
323.65
317.856
313.548
315.018
324.416
350.154
383.581
423.65
426.017
431.783
454.524
349.757
302.571
352.064
322.981
346.642
322.823
348.824
355.851
346.064
353.694
332.892
296.381
242.079
189.946
168.083
174.408
203.079
247.134
296.479
302.468
286.128
264.773
187.468
188.383
188.317
187.747
187.338
187.281
187.49
187.909
188.591
189.635
191.125
193.113
195.635
198.708
202.336
206.498
211.154
216.245
221.691
227.382
233.187
238.977
244.642
250.091
255.258
260.09
264.543
268.581
272.184
275.344
278.078
280.43
282.474
284.293
285.948
287.462
288.83
290.041
291.11
292.078
292.977
293.843
294.658
295.387
296.077
296.71
297.304
297.895
298.467
299.01
299.52
300.007
300.486
300.962
301.438
301.915
302.405
302.926
303.493
304.106
304.756
305.4
305.978
306.362
306.445
306.08
305.229
303.93
302.344
300.636
299.101
297.818
297.044
296.727
296.758
296.93
297.219
298.087
300.109
303.84
309.151
314.976
320.438
325.163
328.503
329.585
327.955
323.771
317.679
312.942
313.884
322.5
347.582
379.935
420.155
423.916
429.601
454.129
349.385
297.291
349.21
319.162
345.799
322.452
347.42
355.448
345.734
354.101
332.959
294.204
239.879
187.777
165.887
171.872
200.407
244.136
293.786
300.813
284.874
264.582
191.838
192.762
192.803
192.369
192.064
192.072
192.314
192.724
193.337
194.234
195.485
197.136
199.219
201.759
204.773
208.262
212.216
216.605
221.38
226.465
231.757
237.144
242.527
247.824
252.959
257.866
262.482
266.75
270.625
274.081
277.112
279.743
282.025
284.024
285.797
287.373
288.761
289.975
291.048
292.025
292.941
293.8
294.602
295.334
295.996
296.624
297.248
297.83
298.401
298.944
299.457
299.948
300.429
300.904
301.375
301.844
302.324
302.834
303.388
303.989
304.63
305.275
305.867
306.28
306.4
306.086
305.276
304.008
302.43
300.701
299.077
297.753
296.895
296.511
296.511
296.698
296.986
297.78
299.686
303.324
308.663
314.572
320.167
324.97
328.596
329.834
328.228
323.888
317.464
312.253
312.611
320.361
344.737
375.955
416.242
421.01
426.768
453.293
347.902
289.804
345.71
314.151
344.695
322.201
346.044
354.947
345.33
354.354
332.644
291.473
237.099
185.247
163.179
168.868
197.318
240.784
290.855
298.888
283.365
264.305
196.011
196.925
197.047
196.723
196.503
196.561
196.826
197.229
197.791
198.577
199.648
201.041
202.785
204.904
207.42
210.346
213.689
217.439
221.573
226.044
230.78
235.692
240.689
245.699
250.656
255.491
260.134
264.519
268.591
272.31
275.656
278.628
281.241
283.518
285.487
287.178
288.63
289.885
290.99
291.991
292.917
293.779
294.573
295.277
295.942
296.561
297.158
297.772
298.339
298.877
299.394
299.888
300.372
300.845
301.31
301.77
302.24
302.736
303.274
303.859
304.489
305.132
305.737
306.18
306.342
306.077
305.319
304.088
302.524
300.78
299.155
297.69
296.727
296.256
296.206
296.404
296.702
297.428
299.211
302.752
308.119
314.125
319.875
324.929
328.701
330.111
328.521
324.003
317.211
311.475
311.18
317.972
341.584
371.608
411.866
417.266
423.499
451.818
344.806
279.58
341.272
307.822
343.235
322.149
344.789
354.395
344.866
354.494
331.908
288.18
233.693
182.309
159.886
165.329
193.703
237.014
287.66
296.674
281.597
263.926
200
200.891
201.072
200.838
200.686
200.782
201.063
201.46
201.981
202.682
203.612
204.805
206.285
208.072
210.189
212.654
215.48
218.672
222.223
226.109
230.286
234.689
239.247
243.887
248.554
253.19
257.729
262.108
266.267
270.162
273.758
277.036
279.982
282.584
284.84
286.755
288.362
289.719
290.896
291.948
292.902
293.767
294.548
295.253
295.9
296.515
297.114
297.691
298.268
298.816
299.327
299.826
300.314
300.785
301.244
301.695
302.152
302.632
303.152
303.717
304.331
304.969
305.585
306.057
306.266
306.054
305.358
304.171
302.628
300.87
299.151
297.636
296.55
295.965
295.84
296.035
296.352
297.019
298.675
302.065
307.511
313.627
319.549
324.762
328.816
330.414
328.834
324.117
316.918
310.603
309.563
315.305
338.082
366.859
406.999
412.789
420.407
449.852
340.22
267.638
335.568
300.111
341.211
322.373
343.77
353.871
344.402
354.278
330.573
284.345
229.599
178.992
155.922
161.2
189.431
232.758
284.158
294.155
279.6
263.491
203.815
204.674
204.897
204.736
204.639
204.764
205.054
205.444
205.932
206.564
207.383
208.418
209.689
211.214
213.012
215.103
217.501
220.219
223.259
226.614
230.26
234.156
238.25
242.481
246.793
251.14
255.472
259.732
263.866
267.823
271.564
275.052
278.255
281.144
283.697
285.909
287.789
289.372
290.705
291.851
292.857
293.749
294.537
295.238
295.88
296.489
297.072
297.649
298.2
298.737
299.275
299.771
300.254
300.725
301.179
301.619
302.063
302.525
303.021
303.562
304.156
304.783
305.407
305.908
306.166
306.02
305.386
304.258
302.749
300.989
299.239
297.611
296.378
295.649
295.412
295.578
295.918
296.538
298.067
301.407
306.832
313.069
319.186
324.633
328.94
330.743
329.171
324.234
316.585
309.633
307.733
312.332
334.187
361.666
401.612
407.772
418.019
447.629
335.263
256.605
328.378
291.1
338.477
322.951
343.109
353.494
344.029
353.868
328.556
279.984
224.819
175.202
151.248
156.394
184.375
227.929
280.281
291.322
277.439
262.993
207.467
208.288
208.539
208.437
208.385
208.531
208.826
209.206
209.665
210.241
210.969
211.877
212.98
214.294
215.836
217.622
219.67
221.991
224.596
227.485
230.648
234.064
237.699
241.507
245.439
249.45
253.503
257.556
261.561
265.471
269.239
272.821
276.175
279.266
282.065
284.558
286.744
288.635
290.248
291.605
292.735
293.685
294.504
295.226
295.876
296.479
297.053
297.61
298.152
298.68
299.189
299.706
300.205
300.667
301.112
301.544
301.974
302.414
302.885
303.395
303.963
304.573
305.2
305.73
306.041
305.967
305.407
304.35
302.89
301.14
299.345
297.625
296.231
295.324
294.929
295.024
295.379
295.965
297.376
300.66
306.057
312.44
318.778
324.463
329.07
331.099
329.534
324.359
316.218
308.562
305.735
309.029
329.851
355.977
395.659
402.401
415.983
445.21
331.471
249.229
319.739
281.14
334.762
323.935
342.922
353.393
343.862
352.947
325.732
275.105
219.359
170.973
145.817
150.833
178.399
222.425
275.94
288.159
275.198
262.491
210.964
211.743
212.013
211.959
211.943
212.103
212.399
212.768
213.201
213.728
214.381
215.183
216.148
217.29
218.621
220.159
221.918
223.911
226.149
228.637
231.376
234.355
237.554
240.946
244.493
248.153
251.89
255.674
259.471
263.237
266.926
270.494
273.896
277.095
280.062
282.778
285.23
287.415
289.332
290.982
292.368
293.503
294.422
295.185
295.858
296.477
297.05
297.591
298.117
298.634
299.149
299.648
300.132
300.609
301.056
301.474
301.885
302.304
302.744
303.219
303.753
304.339
304.962
305.518
305.885
305.891
305.418
304.449
303.052
301.337
299.519
297.71
296.136
295.015
294.404
294.37
294.712
295.275
296.576
299.843
305.166
311.724
318.315
324.277
329.208
331.486
329.93
324.496
315.812
307.379
303.529
305.38
325.026
349.745
389.059
396.696
413.456
442.519
329.681
246.679
309.859
271.02
329.804
325.325
343.39
353.737
343.926
351.72
322.01
269.71
213.228
166.122
139.595
144.384
171.406
216.094
271.019
284.605
272.93
261.983
214.316
215.051
215.331
215.316
215.33
215.5
215.793
216.149
216.558
217.043
217.632
218.344
219.194
220.191
221.348
222.679
224.198
225.917
227.846
229.993
232.363
234.954
237.757
240.754
243.922
247.23
250.641
254.125
257.658
261.209
264.739
268.206
271.569
274.792
277.845
280.705
283.353
285.773
287.952
289.878
291.546
292.96
294.128
295.069
295.821
296.454
297.03
297.579
298.101
298.604
299.106
299.601
300.09
300.549
300.985
301.407
301.807
302.196
302.604
303.036
303.529
304.081
304.693
305.268
305.694
305.787
305.415
304.549
303.25
301.586
299.771
297.895
296.132
294.76
293.864
293.623
293.894
294.434
295.623
298.719
304.145
310.905
317.788
324.062
329.352
331.907
330.368
324.659
315.388
306.087
301.087
301.367
319.666
342.927
381.716
390.681
409.884
439.366
329.744
246.951
299.204
262.124
323.242
327.117
344.538
354.627
344.514
349.963
317.292
263.794
206.553
160.707
132.581
136.931
163.289
208.745
265.368
280.543
270.621
261.446
217.529
218.219
218.504
218.522
218.559
218.736
219.023
219.367
219.753
220.201
220.734
221.371
222.122
222.997
224.007
225.164
226.481
227.968
229.635
231.493
233.546
235.797
238.243
240.878
243.686
246.645
249.73
252.907
256.152
259.446
262.761
266.066
269.325
272.502
275.566
278.492
281.254
283.831
286.202
288.351
290.267
291.946
293.39
294.606
295.604
296.396
297.018
297.548
298.063
298.583
299.089
299.573
300.046
300.507
300.943
301.342
301.723
302.1
302.466
302.854
303.295
303.802
304.391
304.977
305.463
305.649
305.395
304.652
303.475
301.908
300.124
298.191
296.247
294.604
293.348
292.801
292.904
293.395
294.485
297.47
302.949
309.955
317.184
323.792
329.51
332.373
330.864
324.855
314.936
304.683
298.417
296.97
313.73
335.476
373.517
384.225
405.154
435.467
330.024
249.391
288.738
256.121
314.838
329.091
346.573
356.141
345.296
347.841
311.707
257.203
199.199
154.374
124.666
128.299
154.005
200.114
258.774
275.876
268.168
260.813
220.611
221.256
221.542
221.585
221.643
221.824
222.104
222.434
222.8
223.216
223.702
224.275
224.944
225.716
226.601
227.61
228.754
230.044
231.489
233.097
234.876
236.831
238.963
241.269
243.742
246.369
249.132
252.006
254.965
257.987
261.059
264.159
267.261
270.334
273.345
276.265
279.066
281.721
284.211
286.517
288.625
290.525
292.213
293.687
294.948
296.002
296.859
297.533
298.066
298.536
299.034
299.552
300.04
300.482
300.898
301.299
301.669
302.001
302.35
302.676
303.064
303.51
304.061
304.644
305.185
305.469
305.349
304.751
303.731
302.309
300.606
298.655
296.554
294.612
292.91
291.937
291.734
292.106
293.107
295.988
301.543
308.846
316.489
323.532
329.689
332.9
331.435
325.112
314.51
303.195
295.51
292.188
307.184
327.342
364.347
377.248
399.337
430.61
328.729
251.34
279.053
253.504
304.476
331.155
349.101
358.413
346.948
345.181
305.06
250.163
191.545
147.313
115.946
118.281
143.456
189.951
250.971
270.576
265.374
259.997
223.569
224.17
224.453
224.516
224.59
224.772
225.044
225.361
225.708
226.097
226.544
227.064
227.664
228.35
229.13
230.015
231.013
232.135
233.389
234.784
236.327
238.024
239.878
241.891
244.06
246.378
248.834
251.412
254.092
256.851
259.671
262.542
265.449
268.368
271.269
274.121
276.896
279.565
282.107
284.503
286.739
288.803
290.686
292.377
293.871
295.166
296.268
297.192
297.953
298.566
299.056
299.487
299.97
300.471
300.91
301.275
301.614
301.937
302.227
302.526
302.832
303.214
303.712
304.27
304.855
305.239
305.27
304.838
304.013
302.79
301.251
299.358
297.1
294.845
292.633
291.076
290.402
290.499
291.406
294.17
299.838
307.519
315.685
323.12
329.908
333.514
332.121
325.452
314.08
301.616
292.404
286.934
300.003
318.488
354.114
369.504
392.125
424.955
324.329
250.339
270.641
252.62
292.119
332.646
352.283
360.916
348.8
342.451
297.857
242.04
183.04
138.879
106.166
106.774
131.602
177.973
241.634
264.447
262.031
259.017
226.41
226.967
227.243
227.322
227.407
227.588
227.851
228.155
228.485
228.85
229.265
229.741
230.284
230.899
231.593
232.373
233.249
234.23
235.322
236.535
237.876
239.35
240.963
242.717
244.614
246.652
248.823
251.12
253.528
256.031
258.607
261.243
263.93
266.655
269.397
272.13
274.824
277.454
279.994
282.425
284.731
286.899
288.917
290.773
292.458
293.962
295.284
296.43
297.414
298.26
298.981
299.568
300.021
300.393
300.829
301.284
301.642
301.9
302.155
302.38
302.664
302.932
303.345
303.863
304.474
304.959
305.143
304.899
304.311
303.356
302.057
300.33
298.019
295.436
292.599
290.289
288.97
288.52
289.27
291.945
297.752
305.916
314.744
322.822
330.185
334.255
332.949
325.933
313.776
300.026
289.106
281.354
292.157
308.886
342.745
360.658
383.076
418.563
317.018
247.411
262.681
249.714
278.204
333.347
355.463
364.377
351.087
338.877
289.889
233.775
174.472
129.56
95.5597
93.79
118.374
163.989
230.408
257.302
257.849
257.856
229.139
229.654
229.921
230.01
230.103
230.281
230.532
230.822
231.135
231.479
231.866
232.305
232.8
233.357
233.98
234.675
235.45
236.313
237.27
238.33
239.498
240.782
242.187
243.717
245.375
247.162
249.075
251.11
253.258
255.509
257.846
260.253
262.715
265.226
267.775
270.346
272.916
275.459
277.951
280.371
282.699
284.919
287.017
288.982
290.804
292.472
293.981
295.326
296.514
297.556
298.471
299.278
299.973
300.531
300.925
301.176
301.545
301.92
302.172
302.313
302.451
302.689
303.044
303.447
304.037
304.613
304.95
304.914
304.604
303.996
303.056
301.623
299.312
296.517
292.96
289.729
287.416
286.13
286.524
289.087
295.089
303.907
313.616
322.4
330.58
335.186
334.013
326.616
313.514
298.407
285.708
275.532
283.695
298.521
330.183
350.531
371.755
410.698
309.078
246.335
254.776
242.556
263.977
332.049
358.882
366.981
353.492
335.564
281.701
223.903
164.628
118.303
83.6411
78.9436
103.622
147.758
216.92
248.998
252.12
256.792
231.763
232.238
232.492
232.588
232.685
232.858
233.097
233.372
233.668
233.991
234.352
234.758
235.213
235.721
236.284
236.908
237.599
238.364
239.209
240.141
241.165
242.288
243.516
244.853
246.303
247.868
249.549
251.345
253.251
255.26
257.362
259.543
261.789
264.085
266.429
268.813
271.223
273.64
276.043
278.408
280.715
282.943
285.078
287.105
289.013
290.794
292.441
293.949
295.315
296.541
297.633
298.607
299.472
300.245
300.908
301.413
301.68
301.75
302.025
302.321
302.497
302.485
302.625
303.026
303.641
304.209
304.718
304.853
304.822
304.654
304.239
303.294
301.332
298.238
293.925
289.548
285.897
283.377
282.941
285.401
291.653
301.339
312.21
321.972
331.117
336.383
335.347
327.605
313.572
296.93