/*--------------------------------*- C++ -*----------------------------------*\
| =========                 |                                                 |
| \\      /  F ield         | OpenFOAM: The Open Source CFD Toolbox           |
|  \\    /   O peration     | Version:  2412                                  |
|   \\  /    A nd           | Website:  www.openfoam.com                      |
|    \\/     M anipulation  |                                                 |
\*---------------------------------------------------------------------------*/
FoamFile
{
    version     2.0;
    format      ascii;
    arch        "LSB;label=32;scalar=64";
    class       volVectorField;
    location    "0.825";
    object      U;
}
// * * * * * * * * * * * * * * * * * * * * * * * * * * * * * * * * * * * * * //

dimensions      [0 1 -1 0 0 0 0];

internalField   nonuniform List<vector> 
12600
(
(18.721 1.25011e-21 2.09129)
(11.6121 1.61015e-20 0.449886)
(7.34811 1.89311e-20 -0.478047)
(5.08867 0 -0.709159)
(3.9768 1.71171e-20 -0.682271)
(3.33658 1.59434e-20 -0.607627)
(2.8956 0 -0.539989)
(2.56451 0 -0.484586)
(2.30496 -4.79558e-20 -0.439156)
(2.09485 0 -0.401431)
(1.92048 2.01222e-20 -0.369569)
(1.77293 1.84285e-20 -0.342243)
(1.64609 -1.68858e-20 -0.318508)
(1.53563 0 -0.297666)
(1.43836 -1.41586e-20 -0.279195)
(1.35191 0 -0.262692)
(1.27444 4.75973e-20 -0.247841)
(1.20453 0 -0.234394)
(1.14104 -1.99304e-20 -0.222149)
(1.08307 -1.82327e-20 -0.210942)
(1.02988 1.66485e-20 -0.200639)
(0.980855 5.50984e-24 -0.191128)
(0.93549 0 -0.182316)
(0.893359 -2.51395e-20 -0.174124)
(0.854104 0 -0.166483)
(0.817417 0 -0.159338)
(0.783036 -1.86599e-20 -0.152637)
(0.750732 0 -0.146338)
(0.720309 3.9691e-24 -0.140404)
(0.691593 1.35057e-20 -0.134801)
(0.664433 1.20323e-20 -0.1295)
(0.638694 1.06673e-20 -0.124476)
(0.614258 -9.40318e-21 -0.119706)
(0.591019 -1.64656e-20 -0.115169)
(0.568883 -1.42995e-20 -0.110847)
(0.547765 1.22855e-20 -0.106724)
(0.527588 0 -0.102785)
(0.508283 -8.73373e-21 -0.0990165)
(0.489789 0 -0.0954065)
(0.472047 5.69887e-21 -0.091944)
(0.455006 0 -0.0886188)
(0.438619 1.73798e-23 -0.0854216)
(0.422841 0 -0.082344)
(0.407633 1.58272e-23 -0.0793782)
(0.392958 -3.27711e-23 -0.0765168)
(0.378782 1.76575e-21 -0.0737534)
(0.365072 -3.37618e-21 -0.0710815)
(0.3518 0 -0.0684956)
(0.338938 0 -0.0659902)
(0.326461 -7.3558e-21 -0.0635604)
(0.314343 -1.68844e-20 -0.0612014)
(0.302566 -1.88438e-20 -0.0589091)
(0.291104 1.93289e-23 -0.0566789)
(0.279942 -2.21606e-20 -0.0545077)
(0.269056 0 -0.0523909)
(0.258436 2.48208e-20 -0.0503263)
(0.248058 2.59106e-20 -0.0483092)
(0.237914 2.68464e-20 -0.0463384)
(0.227981 0 -0.0444089)
(0.218255 0 -0.0425204)
(0.208712 0 -0.0406677)
(0.199354 -5.88856e-20 -0.0388515)
(0.190151 0 -0.0370659)
(0.181115 0 -0.0353132)
(0.17221 1.21265e-19 -0.0335863)
(0.163457 0 -0.0318893)
(0.154812 0 -0.0302137)
(0.14631 0 -0.028566)
(0.137895 -1.21627e-19 -0.0269357)
(0.129616 1.21096e-19 -0.0253321)
(0.121408 1.20342e-19 -0.0237423)
(0.113334 2.34181e-23 -0.0221789)
(0.105315 -1.18256e-19 -0.0206263)
(0.0974379 0 -0.0191012)
(0.0896023 1.15488e-19 -0.0175845)
(0.0819206 0 -0.0160975)
(0.0742731 0 -0.0146173)
(0.0667989 0 -0.0131705)
(0.0593572 2.87982e-23 -0.0117302)
(0.0521139 2.12492e-19 -0.010328)
(0.0449095 2.08129e-19 -0.00893348)
(0.0379327 -2.03619e-19 -0.0075826)
(0.0310118 -1.98938e-19 -0.00624258)
(0.024346 0 -0.00495148)
(0.0177698 0 -0.00367768)
(0.0114623 3.68526e-19 -0.00245541)
(0.00530345 -7.16532e-19 -0.00126176)
(-0.000600709 6.95915e-19 -0.000116886)
(-0.00627517 3.3747e-19 0.000983259)
(-0.0116885 0 0.00203386)
(-0.0169556 -6.32568e-19 0.00305619)
(-0.0214945 3.05772e-19 0.00393797)
(-0.0269805 -2.94939e-19 0.00500161)
(-0.0299051 5.69255e-19 0.00557558)
(-0.0350886 0 0.00657673)
(-0.041423 0 0.00775844)
(-0.0322937 0 0.00608671)
(-0.0630999 0 0.0119483)
(-0.0345855 0 0.00634333)
(-0.0460291 0 0.00906019)
(-0.102405 -4.2333e-19 0.0191267)
(0.0197419 -8.53924e-19 -0.00369851)
(-0.128732 -7.26092e-19 0.0248002)
(-0.0747287 0 0.0130838)
(0.0388821 0 -0.00632365)
(-0.26621 0 0.0506493)
(0.0677288 -7.36019e-19 -0.0138507)
(-0.0709952 -1.10438e-18 0.0155627)
(-0.325656 5.89392e-19 0.0605081)
(0.173337 0 -0.0327947)
(-0.215907 -9.08691e-19 0.0436269)
(-0.367357 0 0.0674928)
(0.207499 -1.14814e-18 -0.0396503)
(-0.0819871 8.39324e-19 0.018889)
(-0.517379 -8.5278e-19 0.0981507)
(-0.167017 -9.71436e-19 0.029215)
(0.0745956 9.1732e-19 -0.0139556)
(-0.181063 7.45603e-23 0.036096)
(-0.41378 7.91521e-19 0.0783102)
(-0.0743892 0 0.0124704)
(29.1255 -1.26199e-21 4.02146)
(25.0881 0 1.8551)
(20.2315 -1.91604e-20 -0.215337)
(16.07 0 -1.21281)
(13.1141 -1.73446e-20 -1.50796)
(11.0738 -3.04629e-20 -1.51892)
(9.60311 -1.41036e-20 -1.44136)
(8.49217 0 -1.34386)
(7.62008 3.55931e-22 -1.24858)
(6.91412 -2.19423e-20 -1.16159)
(6.32871 2.01509e-20 -1.08358)
(5.83384 1.85036e-20 -1.01382)
(5.40895 -1.69887e-20 -0.951305)
(5.03938 1.55947e-20 -0.895066)
(4.71439 2.86782e-20 -0.844241)
(4.42591 0 -0.798098)
(4.16776 -6.48617e-23 -0.756017)
(3.93511 2.205e-20 -0.71748)
(3.72413 2.02204e-20 -0.682045)
(3.53174 0 -0.649344)
(3.35543 0 -0.619062)
(3.19314 1.53934e-20 -0.590929)
(3.04316 0 -0.564715)
(2.90405 1.27439e-20 -0.540223)
(2.77458 -2.31204e-20 -0.51728)
(2.65373 0 -0.495738)
(2.54061 1.89125e-20 -0.475464)
(2.43444 0 -0.456346)
(2.33457 -1.5291e-20 -0.43828)
(2.2404 -2.7361e-20 -0.421178)
(2.15143 -2.43717e-20 -0.404961)
(2.06721 -1.07973e-20 -0.389556)
(1.98734 9.51509e-21 -0.374901)
(1.91146 3.33311e-20 -0.360938)
(1.83925 2.894e-20 -0.347615)
(1.77043 0 -0.334886)
(1.70475 0 -0.322709)
(1.64196 -1.71291e-23 -0.311044)
(1.58187 0 -0.299858)
(1.52429 -5.75324e-21 -0.289117)
(1.46903 0 -0.278792)
(1.41594 -6.30024e-21 -0.268857)
(1.36487 0 -0.259285)
(1.31569 -1.9072e-21 -0.250055)
(1.26828 0 -0.241144)
(1.22253 -1.778e-21 -0.232533)
(1.17832 0 -0.224203)
(1.13556 0 -0.216137)
(1.09416 6.15519e-21 -0.208319)
(1.05403 0 -0.200735)
(1.0151 0 -0.193369)
(0.977288 0 -0.186209)
(0.940525 2.06498e-20 -0.179242)
(0.904755 4.44035e-20 -0.172458)
(0.869902 0 -0.165842)
(0.835926 0 -0.159389)
(0.802753 -2.58859e-20 -0.153083)
(0.770354 -2.68451e-20 -0.146922)
(0.738654 0 -0.140889)
(0.707641 0 -0.134984)
(0.677233 0 -0.12919)
(0.647436 0 -0.123512)
(0.618156 -5.93712e-20 -0.117928)
(0.589425 5.99076e-20 -0.112447)
(0.561132 -1.20574e-19 -0.107047)
(0.533337 0 -0.101741)
(0.505907 0 -0.0965012)
(0.478937 0 -0.0913498)
(0.452265 4.71704e-23 -0.0862514)
(0.426032 -1.19938e-19 -0.081238)
(0.400036 -1.19082e-19 -0.0762659)
(0.374473 2.36036e-19 -0.0713788)
(0.349097 3.58272e-23 -0.0665225)
(0.324165 -1.15372e-19 -0.0617549)
(0.29938 -1.13845e-19 -0.0570099)
(0.275073 0 -0.052361)
(0.250886 0 -0.0477291)
(0.227233 0 -0.043205)
(0.203693 2.12659e-19 -0.0386958)
(0.18076 0 -0.0343099)
(0.157956 0 -0.0299413)
(0.135848 1.99285e-19 -0.025714)
(0.113919 1.94496e-19 -0.0215127)
(0.0927708 0 -0.0174701)
(0.0719002 0 -0.0134719)
(0.0518568 0 -0.00964181)
(0.0322668 6.97424e-19 -0.00588986)
(0.0134697 -4.47452e-23 -0.0022986)
(-0.00462665 3.27723e-19 0.0011659)
(-0.0219202 -3.1718e-19 0.00447028)
(-0.0387129 6.1302e-19 0.00767954)
(-0.0534022 2.95976e-19 0.0104913)
(-0.0706901 5.70426e-19 0.013795)
(-0.0804801 0 0.0156417)
(-0.097227 0 0.018934)
(-0.115453 0 0.0221993)
(-0.0928952 0 0.0181604)
(-0.180775 4.61844e-19 0.0350073)
(-0.0970923 0 0.0179369)
(-0.141148 0 0.0287176)
(-0.287696 -4.05774e-19 0.0540231)
(0.0480303 4.09026e-19 -0.00922318)
(-0.385009 1.38974e-18 0.0764452)
(-0.193996 -7.50934e-19 0.0329519)
(0.0760847 0 -0.010704)
(-0.764948 0 0.147459)
(0.210695 0 -0.045215)
(-0.261054 5.26061e-19 0.0588336)
(-0.895914 -5.60927e-19 0.167414)
(0.481429 0 -0.0949467)
(-0.694364 1.72704e-18 0.144746)
(-0.982784 1.01076e-18 0.180613)
(0.588812 2.17832e-18 -0.118392)
(-0.332999 0 0.0780934)
(-1.46782 0 0.283895)
(-0.419107 -9.18651e-19 0.0694724)
(0.183808 0 -0.035353)
(-0.56637 -7.41011e-19 0.117436)
(-1.1594 -7.47076e-19 0.221604)
(-0.14786 0 0.0222512)
(31.8693 0 3.89066)
(31.0572 0 2.81368)
(28.5308 -1.29884e-20 1.01971)
(25.1921 0 -0.385579)
(21.9447 0 -1.22846)
(19.1759 1.51417e-20 -1.65262)
(16.9211 1.33562e-20 -1.82063)
(15.0988 0 -1.85213)
(13.6134 4.20558e-22 -1.81842)
(12.3849 2.07874e-20 -1.75596)
(11.3529 -3.79724e-20 -1.68223)
(10.4732 -1.7532e-20 -1.60557)
(9.71362 1.1464e-22 -1.52997)
(9.05042 -1.47772e-20 -1.45727)
(8.46567 -1.35609e-20 -1.38827)
(7.94568 1.23896e-20 -1.32323)
(7.4798 -2.28082e-20 -1.26211)
(7.05961 -2.08955e-20 -1.20478)
(6.67839 0 -1.151)
(6.3307 0 -1.10054)
(6.01207 1.59511e-20 -1.05316)
(5.71883 1.4555e-20 -1.0086)
(5.44789 0 -0.966648)
(5.19667 0 -0.927095)
(4.96298 2.1908e-20 -0.88975)
(4.74495 0 -0.854439)
(4.54096 -3.58344e-20 -0.821002)
(4.34962 1.6139e-20 -0.789296)
(4.16973 0 -0.75919)
(4.00023 1.29639e-20 -0.730565)
(3.84018 1.15478e-20 -0.703312)
(3.68877 0 -0.677333)
(3.54527 -9.0265e-21 -0.652539)
(3.40903 -1.57941e-20 -0.628847)
(3.27948 1.19077e-23 -0.606182)
(3.15609 0 -0.584477)
(3.03841 0 -0.563666)
(2.92599 8.37192e-21 -0.543694)
(2.81848 0 -0.524505)
(2.71551 0 -0.506052)
(2.61677 0 -0.488287)
(2.52198 0 -0.47117)
(2.43086 0 -0.454659)
(2.34318 0 -0.43872)
(2.2587 0 -0.423317)
(2.17723 1.64019e-21 -0.408419)
(2.09857 -3.16216e-21 -0.393996)
(2.02254 0 -0.380022)
(1.94898 -5.82339e-21 -0.366467)
(1.87774 0 -0.35331)
(1.80865 0 -0.340525)
(1.74162 1.78087e-20 -0.328094)
(1.67648 0 -0.315991)
(1.61314 -2.09786e-20 -0.304203)
(1.55147 2.227e-20 -0.292704)
(1.49139 0 -0.281485)
(1.43278 2.44679e-20 -0.270521)
(1.37556 0 -0.259805)
(1.31962 0 -0.249312)
(1.26492 0 -0.23904)
(1.21133 5.45103e-20 -0.228961)
(1.15884 5.53712e-20 -0.219082)
(1.1073 2.82758e-23 -0.209367)
(1.05674 -1.13113e-19 -0.199832)
(1.00699 2.48088e-23 -0.190436)
(0.95814 0 -0.181205)
(0.909956 0 -0.172088)
(0.862596 -1.14078e-19 -0.163126)
(0.815787 3.79845e-23 -0.154255)
(0.769757 0 -0.145534)
(0.724168 0 -0.136883)
(0.679342 -1.11276e-19 -0.12838)
(0.634863 2.88299e-23 -0.11993)
(0.591163 2.68562e-23 -0.111635)
(0.547737 0 -0.103377)
(0.505139 0 -0.095287)
(0.462765 -2.07788e-19 -0.0872228)
(0.421309 2.04109e-19 -0.0793479)
(0.380059 0 -0.0714935)
(0.33985 0 -0.0638555)
(0.299871 0 -0.0562405)
(0.261081 0 -0.048874)
(0.222601 0 -0.0415435)
(0.185456 0 -0.0344927)
(0.148786 0 -0.0275071)
(0.113535 0 -0.0208197)
(0.0790517 -6.55674e-19 -0.0142528)
(0.0459409 -3.18012e-19 -0.00797417)
(0.0140185 -3.08018e-19 -0.00190122)
(-0.0165245 2.98047e-19 0.00389876)
(-0.0461471 -5.75864e-19 0.00951015)
(-0.0723471 -2.78008e-19 0.0145128)
(-0.102565 -2.67831e-19 0.0202188)
(-0.120502 0 0.0235708)
(-0.150228 0 0.0295293)
(-0.180025 0 0.0344287)
(-0.148649 0 0.0296692)
(-0.289677 -4.33286e-19 0.0560106)
(-0.153247 0 0.0274821)
(-0.238398 0 0.0505603)
(-0.455032 3.80465e-19 0.0825975)
(0.0652713 0 -0.0113332)
(-0.639083 -6.51278e-19 0.129616)
(-0.28728 7.03712e-19 0.0420309)
(0.0757518 0 -0.00107059)
(-1.23143 0 0.235469)
(0.355463 0 -0.0814303)
(-0.493074 4.93059e-19 0.121288)
(-1.39104 0 0.249102)
(0.745906 -5.73108e-19 -0.148338)
(-1.20986 2.30566e-22 0.26573)
(-1.48742 -9.45967e-19 0.255708)
(0.928033 -2.0387e-18 -0.191607)
(-0.659476 0 0.170788)
(-2.33273 7.54466e-19 0.448592)
(-0.598899 8.59289e-19 0.0796713)
(0.252283 8.11806e-19 -0.0456007)
(-0.966679 0 0.211471)
(-1.8213 6.98543e-19 0.34076)
(-0.143092 0 0.00636597)
(32.3922 0 2.94777)
(32.959 0 2.76226)
(32.4069 1.22783e-20 1.71845)
(30.7659 0 0.517853)
(28.5153 -1.2325e-20 -0.486744)
(26.1017 2.50712e-20 -1.20926)
(23.7848 0 -1.67204)
(21.6807 -2.1894e-20 -1.93603)
(19.8227 2.09952e-20 -2.06515)
(18.2014 1.89925e-20 -2.10942)
(16.7893 1.78538e-20 -2.10264)
(15.5553 -1.62326e-20 -2.06606)
(14.4709 1.51154e-20 -2.01262)
(13.5119 -2.75658e-20 -1.95015)
(12.6582 0 -1.88337)
(11.8936 -2.33726e-20 -1.81515)
(11.2047 0 -1.74724)
(10.5808 0 -1.68068)
(10.0129 0 -1.61609)
(9.49351 1.64674e-20 -1.5538)
(9.01662 -3.43315e-23 -1.49399)
(8.57704 -2.61401e-23 -1.4367)
(8.17041 1.25227e-20 -1.38192)
(7.79304 0 -1.32959)
(7.44177 0 -1.27961)
(7.11387 0 -1.23189)
(6.80701 3.38763e-20 -1.18631)
(6.51913 -6.16556e-24 -1.14277)
(6.24846 0 -1.10116)
(5.99342 0 -1.06136)
(5.75264 0 -1.02327)
(5.5249 0 -0.986791)
(5.30911 1.70738e-20 -0.951833)
(5.10431 0 -0.918305)
(4.90961 -1.29771e-20 -0.886124)
(4.72426 0 -0.855212)
(4.54754 0 -0.825494)
(4.37881 -7.93732e-21 -0.796903)
(4.21751 0 -0.769373)
(4.06311 0 -0.742845)
(3.91513 3.97115e-21 -0.717261)
(3.77313 -5.70723e-21 -0.692568)
(3.63672 0 -0.668715)
(3.50552 -1.77106e-21 -0.645657)
(3.37919 0 -0.623347)
(3.25743 -3.0797e-21 -0.601746)
(3.13993 1.86838e-23 -0.580813)
(3.02644 0 -0.560512)
(2.91669 0 -0.540806)
(2.81047 6.5452e-21 -0.521665)
(2.70753 1.50361e-20 -0.503053)
(2.6077 -3.3603e-20 -0.484945)
(2.51076 0 -0.467308)
(2.41656 -1.97557e-20 -0.450121)
(2.3249 -2.10221e-20 -0.433351)
(2.23566 -2.20924e-20 -0.416983)
(2.14864 -2.30501e-20 -0.400981)
(2.06376 0 -0.385339)
(1.98082 0 -0.370019)
(1.89977 -5.03878e-20 -0.35502)
(1.8204 -1.02804e-19 -0.340301)
(1.74271 -5.22245e-20 -0.325871)
(1.66647 3.03472e-23 -0.31168)
(1.59173 5.33156e-20 -0.297751)
(1.51822 5.36255e-20 -0.284024)
(1.44606 0 -0.270539)
(1.37493 0 -0.257219)
(1.30505 1.07505e-19 -0.244125)
(1.23601 2.14184e-19 -0.231165)
(1.16814 0 -0.218421)
(1.10095 1.05693e-19 -0.20578)
(1.03489 1.04737e-19 -0.193357)
(0.96937 1.0364e-19 -0.181008)
(0.904998 2.04713e-19 -0.168885)
(0.84105 0 -0.156814)
(0.778312 0 -0.144988)
(0.71592 1.95533e-19 -0.133198)
(0.654856 -3.84034e-19 -0.121682)
(0.594106 -1.88284e-19 -0.110193)
(0.534855 0 -0.0990171)
(0.475945 0 -0.0878711)
(0.418743 0 -0.077085)
(0.361991 0 -0.0663457)
(0.307157 0 -0.0560127)
(0.253001 0 -0.0457657)
(0.200893 -3.17157e-19 -0.0359552)
(0.149875 4.30051e-23 -0.0263062)
(0.100854 2.98599e-19 -0.017084)
(0.0535224 0 -0.00814809)
(0.00818738 2.79759e-19 0.000398271)
(-0.0357437 2.70262e-19 0.00864123)
(-0.0749886 0 0.0160997)
(-0.119414 -2.51268e-19 0.0243815)
(-0.146988 -4.84239e-19 0.0294995)
(-0.191189 0 0.038418)
(-0.232505 0 0.0445868)
(-0.197085 0 0.0405176)
(-0.386867 -4.06124e-19 0.0750866)
(-0.201678 0 0.0355313)
(-0.334899 0 0.0739316)
(-0.601917 3.56345e-19 0.106358)
(0.0712465 -3.59361e-19 -0.0104724)
(-0.885213 0 0.182934)
(-0.35584 0 0.0437015)
(0.0400331 0 0.0191735)
(-1.65754 0 0.314757)
(0.493739 0 -0.119548)
(-0.75838 1.77291e-22 0.197171)
(-1.80471 0 0.311591)
(0.955994 5.36296e-19 -0.191865)
(-1.74571 -7.56633e-19 0.398832)
(-1.87645 0 0.302036)
(1.20954 -2.31626e-22 -0.255907)
(-1.04635 0 0.286392)
(-3.09247 -4.83353e-22 0.593618)
(-0.711012 0 0.0691929)
(0.278203 -7.5901e-19 -0.046139)
(-1.36623 0 0.312601)
(-2.38086 6.52393e-19 0.438451)
(-0.0542323 0 -0.0307202)
(32.4958 0 2.09497)
(33.2539 0 2.22111)
(33.6012 0 1.74649)
(33.2379 0 0.95294)
(32.2167 1.16339e-20 0.111595)
(30.7447 -9.00203e-22 -0.637135)
(29.0272 0 -1.23787)
(27.223 2.06649e-20 -1.68145)
(25.4416 0 -1.98505)
(23.749 -3.53529e-20 -2.17689)
(22.1774 0 -2.28553)
(20.7371 1.53248e-20 -2.33496)
(19.4256 0 -2.34347)
(18.2341 2.60264e-20 -2.3243)
(17.1514 -1.18597e-20 -2.28673)
(16.1661 2.19224e-20 -2.23723)
(15.2672 -2.00778e-20 -2.18022)
(14.4448 -1.84378e-20 -2.11876)
(13.6902 0 -2.05497)
(12.9957 -1.55498e-20 -1.9903)
(12.3546 -1.42144e-20 -1.92573)
(11.761 -2.5914e-20 -1.86196)
(11.21 -1.18248e-20 -1.79943)
(10.6972 0 -1.73845)
(10.2186 0 -1.6792)
(9.77106 0 -1.62178)
(9.35149 -1.59884e-20 -1.56626)
(8.95736 -1.44056e-20 -1.51264)
(8.58639 0 -1.4609)
(8.23654 0 -1.41101)
(7.90603 1.03116e-20 -1.36291)
(7.59324 0 -1.31656)
(7.29676 1.25464e-24 -1.27188)
(7.01528 -1.41204e-20 -1.22881)
(6.74766 1.22658e-20 -1.18729)
(6.49286 0 -1.14724)
(6.24992 0 -1.1086)
(6.018 7.49141e-21 -1.0713)
(5.79631 0 -1.03528)
(5.58413 0 -1.00047)
(5.38083 -3.74743e-21 -0.966829)
(5.18581 5.38537e-21 -0.934285)
(4.9985 0 -0.902786)
(4.81843 1.67097e-21 -0.872283)
(4.6451 0 -0.842722)
(4.47811 1.44342e-21 -0.814059)
(4.31703 2.80022e-21 -0.786245)
(4.16152 0 -0.75924)
(4.01121 5.14064e-21 -0.732998)
(3.86579 -6.17249e-21 -0.707483)
(3.72495 -2.83279e-20 -0.682653)
(3.58843 1.58283e-20 -0.658477)
(3.45594 -1.72795e-20 -0.634913)
(3.32726 2.5192e-23 -0.611937)
(3.20212 0 -0.589505)
(3.08034 2.08229e-20 -0.567601)
(2.96167 2.17234e-20 -0.546179)
(2.84597 -2.24838e-20 -0.525231)
(2.73299 2.31531e-20 -0.504706)
(2.62264 4.74725e-20 -0.484608)
(2.51464 4.84064e-20 -0.464878)
(2.40898 -4.91299e-20 -0.445533)
(2.30535 4.97479e-20 -0.426504)
(2.20381 0 -0.407826)
(2.10399 0 -0.389415)
(2.00605 5.05996e-20 -0.371326)
(1.90956 0 -0.353457)
(1.81479 0 -0.335891)
(1.72121 -1.00766e-19 -0.318501)
(1.62924 0 -0.301401)
(1.53823 -9.94412e-20 -0.284437)
(1.44876 -1.97022e-19 -0.267763)
(1.36006 0 -0.251188)
(1.27291 -9.6247e-20 -0.234914)
(1.18637 0 -0.218707)
(1.10144 0 -0.202827)
(1.017 -1.83717e-19 -0.18699)
(0.934334 1.80454e-19 -0.171518)
(0.852098 3.95833e-23 -0.156078)
(0.771845 0 -0.141055)
(0.692054 0 -0.126064)
(0.614517 0 -0.111553)
(0.537575 -1.61473e-19 -0.0970944)
(0.463165 1.57354e-19 -0.0831802)
(0.389642 0 -0.069366)
(0.318833 5.95391e-19 -0.0561406)
(0.24944 2.88977e-19 -0.0431099)
(0.182718 -5.60379e-19 -0.0306617)
(0.118197 -2.71278e-19 -0.0185714)
(0.0563346 -5.24858e-19 -0.00700548)
(-0.00357783 0 0.00412948)
(-0.0575895 0 0.0143462)
(-0.117673 2.35605e-19 0.0253932)
(-0.156596 4.53982e-19 0.0325764)
(-0.216847 -4.35972e-19 0.0448042)
(-0.269958 0 0.0518903)
(-0.235269 0 0.0501327)
(-0.469238 3.80514e-19 0.0912688)
(-0.2408 3.7453e-19 0.0416144)
(-0.427096 0 0.0981369)
(-0.726512 -3.33726e-19 0.123904)
(0.0669297 3.36502e-19 -0.00610434)
(-1.1173 0 0.234954)
(-0.402476 0 0.0373899)
(-0.0260467 0 0.0509631)
(-2.03647 0 0.381275)
(0.617103 0 -0.157508)
(-1.04559 -4.31977e-19 0.28569)
(-2.13525 0 0.34993)
(1.10426 0 -0.221982)
(-2.28336 0 0.54077)
(-2.15323 8.25387e-19 0.313664)
(1.42092 8.91906e-19 -0.306388)
(-1.47332 0 0.423723)
(-3.73171 -6.59172e-19 0.710553)
(-0.766064 0 0.036523)
(0.264275 -7.09792e-19 -0.034715)
(-1.74659 0 0.417148)
(-2.82205 -6.09686e-19 0.505089)
(0.120144 0 -0.0931911)
(32.5686 -4.99812e-21 1.48058)
(33.1523 -6.2007e-21 1.62086)
(33.6792 7.36007e-21 1.43038)
(33.9052 8.29253e-21 0.969894)
(33.7136 0 0.378424)
(33.116 -9.93723e-21 -0.237065)
(32.186 0 -0.810778)
(31.0144 1.7469e-20 -1.30572)
(29.6897 1.67064e-20 -1.70647)
(28.2883 3.22291e-20 -2.01347)
(26.8695 -1.48339e-20 -2.23642)
(25.4754 1.38465e-20 -2.3888)
(24.1332 0 -2.48453)
(22.8584 0 -2.53622)
(21.6583 1.11811e-20 -2.55449)
(20.5347 -1.14574e-22 -2.54785)
(19.4859 1.76126e-22 -2.52296)
(18.5085 1.35981e-22 -2.48488)
(17.598 0 -2.43744)
(16.7495 0 -2.38354)
(15.9581 0 -2.32531)
(15.2191 2.43499e-20 -2.26437)
(14.5281 1.10846e-20 -2.20191)
(13.8811 0 -2.13883)
(13.2742 0 -2.07578)
(12.7041 1.66258e-20 -2.01325)
(12.1677 0 -1.95159)
(11.6623 0 -1.89105)
(11.1852 0 -1.83181)
(10.7344 0 -1.77398)
(10.3076 -6.53205e-24 -1.71765)
(9.90304 0 -1.66286)
(9.51905 -1.72996e-24 -1.60962)
(9.15408 1.33106e-20 -1.55793)
(8.80675 2.4133e-24 -1.50777)
(8.47578 0 -1.45912)
(8.16002 0 -1.41195)
(7.85843 0 -1.3662)
(7.57002 0 -1.32185)
(7.29392 0 -1.27884)
(7.02932 0 -1.23712)
(6.77545 0 -1.19665)
(6.53163 -3.28521e-21 -1.15737)
(6.29722 -1.61028e-21 -1.11925)
(6.07162 0 -1.08222)
(5.85429 1.32565e-21 -1.04624)
(5.6447 0 -1.01127)
(5.4424 0 -0.977255)
(5.24692 -9.66852e-21 -0.944157)
(5.05787 0 -0.911934)
(4.87482 1.33251e-20 -0.880538)
(4.69746 0 -0.849937)
(4.52539 3.25154e-20 -0.820081)
(4.35834 2.44026e-23 -0.790945)
(4.19596 0 -0.762478)
(4.03802 0 -0.734661)
(3.88417 0 -0.70744)
(3.73426 4.23038e-20 -0.680806)
(3.58792 -4.35606e-20 -0.654699)
(3.44507 -4.4604e-20 -0.629122)
(3.30534 -4.54823e-20 -0.604005)
(3.16869 9.24147e-20 -0.57937)
(3.03473 4.67425e-20 -0.555132)
(2.90353 0 -0.531332)
(2.77462 0 -0.507869)
(2.64819 -2.42138e-23 -0.484811)
(2.52369 0 -0.462029)
(2.40144 0 -0.43963)
(2.28079 -9.46523e-20 -0.417451)
(2.16223 0 -0.39564)
(2.04497 0 -0.373997)
(1.92971 1.8509e-19 -0.352722)
(1.81547 -9.15113e-20 -0.331568)
(1.70323 0 -0.310796)
(1.59179 0 -0.290104)
(1.48243 0 -0.269825)
(1.37371 1.72538e-19 -0.249596)
(1.26723 0 -0.229828)
(1.16131 3.32142e-19 -0.210091)
(1.05789 -1.62614e-19 -0.190883)
(0.955056 0 -0.171705)
(0.855053 0 -0.153136)
(0.755789 1.51524e-19 -0.134619)
(0.659707 -2.6706e-23 -0.116794)
(0.564714 1.43613e-19 -0.0990767)
(0.473148 -2.79214e-19 -0.0821136)
(0.383318 2.70939e-19 -0.0653709)
(0.296889 2.62723e-19 -0.0493827)
(0.213174 2.54349e-19 -0.0338186)
(0.132837 3.15992e-23 -0.0189242)
(0.0550497 0 -0.00460736)
(-0.0156627 -2.29226e-19 0.00869763)
(-0.0930563 0 0.0227304)
(-0.145281 0 0.0323247)
(-0.22327 4.08424e-19 0.0481682)
(-0.288801 0 0.0560003)
(-0.25963 0 0.0579887)
(-0.533143 0 0.104095)
(-0.268436 -3.50677e-19 0.0456053)
(-0.510711 0 0.122394)
(-0.82676 -3.12227e-19 0.135294)
(0.054315 0 0.00150118)
(-1.329 0 0.284192)
(-0.430218 0 0.0242316)
(-0.115849 0 0.0928745)
(-2.36143 0 0.435502)
(0.717976 -5.38469e-19 -0.19336)
(-1.34251 -4.04286e-19 0.38395)
(-2.38305 4.28411e-19 0.365821)
(1.18715 0 -0.236976)
(-2.80422 0 0.6868)
(-2.32599 -1.54246e-18 0.294271)
(1.55447 0 -0.34028)
(-1.91845 6.10311e-19 0.577285)
(-4.23753 0 0.796598)
(-0.776812 7.00672e-19 -0.0138364)
(0.216711 6.63289e-19 -0.0128832)
(-2.08751 0 0.520418)
(-3.12833 -5.69006e-19 0.539249)
(0.379191 0 -0.180203)
(32.6238 4.70687e-21 1.02832)
(33.0351 1.14337e-20 1.11594)
(33.4814 -6.9328e-21 1.03344)
(33.8468 -7.80542e-22 0.770533)
(34.0206 7.5115e-21 0.38067)
(33.9467 0 -0.0742156)
(33.6174 0 -0.545019)
(33.0527 -1.64496e-20 -0.996011)
(32.288 -3.05605e-20 -1.40358)
(31.3658 -7.08229e-22 -1.75469)
(30.3296 1.39668e-20 -2.04484)
(29.2198 -1.30371e-20 -2.2754)
(28.0714 1.17942e-20 -2.45117)
(26.9126 0 -2.57875)
(25.7649 0 -2.66531)
(24.6438 -9.58457e-21 -2.71784)
(23.5597 3.50845e-20 -2.74272)
(22.5192 3.23008e-20 -2.74551)
(21.5256 0 -2.73093)
(20.5804 0 -2.70286)
(19.6833 0 -2.66446)
(18.8332 -6.73888e-23 -2.61826)
(18.0284 -2.08223e-20 -2.56629)
(17.2666 9.46245e-21 -2.51016)
(16.5457 1.72058e-20 -2.45115)
(15.8631 -3.12598e-20 -2.39024)
(15.2166 1.41151e-20 -2.32822)
(14.6039 1.27296e-20 -2.26572)
(14.0227 1.14417e-20 -2.20321)
(13.4709 0 -2.14105)
(12.9467 -9.14654e-21 -2.07953)
(12.4481 8.10388e-21 -2.01888)
(11.9736 -7.15358e-21 -1.95924)
(11.5214 -1.25247e-20 -1.90073)
(11.0902 -2.17711e-20 -1.84345)
(10.6785 0 -1.78744)
(10.2851 0 -1.73274)
(9.90885 -6.66521e-21 -1.67936)
(9.54864 0 -1.62731)
(9.20345 4.36432e-21 -1.57658)
(8.87235 3.3477e-21 -1.52715)
(8.55447 0 -1.47901)
(8.24899 6.1986e-21 -1.43211)
(7.95517 1.51537e-21 -1.38643)
(7.6723 0 -1.34194)
(7.39972 -1.24739e-21 -1.29859)
(7.13681 -2.43574e-21 -1.25635)
(6.88301 0 -1.21518)
(6.63776 9.06726e-21 -1.17504)
(6.40058 -5.42739e-21 -1.13588)
(6.17096 -1.24812e-20 -1.09767)
(5.9485 0 -1.06037)
(5.73272 -2.46535e-23 -1.02393)
(5.52327 3.28687e-20 -0.988324)
(5.31973 0 -0.953498)
(5.12182 0 -0.919435)
(4.92909 -1.91677e-20 -0.886071)
(4.74135 -1.98774e-20 -0.853402)
(4.55817 4.09159e-20 -0.821355)
(4.3794 4.19288e-20 -0.789941)
(4.20461 4.27507e-20 -0.759074)
(4.03374 -4.34138e-20 -0.728783)
(3.86631 -8.78257e-20 -0.698966)
(3.70238 0 -0.669678)
(3.54138 0 -0.640792)
(3.38352 -8.93434e-20 -0.612397)
(3.22814 0 -0.584332)
(3.07562 0 -0.556731)
(2.92514 8.88989e-20 -0.529394)
(2.77732 0 -0.502505)
(2.63114 -8.76643e-20 -0.475815)
(2.48749 -3.23346e-23 -0.449573)
(2.34515 8.59117e-20 -0.423472)
(2.20529 0 -0.397838)
(2.06646 0 -0.372293)
(1.93019 0 -0.347253)
(1.79474 1.61818e-19 -0.322262)
(1.66203 0 -0.297837)
(1.53001 -1.55782e-19 -0.273436)
(1.40104 3.05042e-19 -0.249682)
(1.27278 0 -0.225949)
(1.14796 0 -0.202962)
(1.02401 0 -0.180018)
(0.90393 -2.64513e-23 -0.157928)
(0.785129 -1.34634e-19 -0.135941)
(0.670514 -2.61637e-19 -0.11489)
(0.557942 -2.53935e-19 -0.0940737)
(0.449564 2.46132e-19 -0.0742038)
(0.344404 0 -0.0548128)
(0.243405 2.30449e-19 -0.0362544)
(0.145599 0 -0.018431)
(0.0560168 2.14708e-19 -0.00167827)
(-0.0405752 0 0.0155848)
(-0.108317 0 0.0279714)
(-0.205869 0 0.0477566)
(-0.28486 -3.66985e-19 0.0561653)
(-0.26591 -3.53858e-19 0.063411)
(-0.574492 0 0.112787)
(-0.28176 3.28155e-19 0.0471299)
(-0.580766 -3.05643e-19 0.145776)
(-0.900635 2.92144e-19 0.14012)
(0.0367588 -2.94805e-19 0.0120494)
(-1.51387 0 0.32917)
(-0.442226 0 0.00506536)
(-0.221095 0 0.14355)
(-2.6276 0 0.474927)
(0.790961 5.03517e-19 -0.225426)
(-1.6365 -8.73502e-23 0.488985)
(-2.55262 -8.00659e-19 0.359465)
(1.2064 0 -0.236626)
(-3.29022 0 0.832081)
(-2.41064 7.20438e-19 0.245984)
(1.60898 0 -0.356076)
(-2.35914 -5.70334e-19 0.742074)
(-4.60219 0 0.847568)
(-0.757085 -1.30903e-18 -0.0786256)
(0.146196 0 0.0182998)
(-2.36791 0 0.617048)
(-3.28622 5.31542e-19 0.5354)
(0.71893 0 -0.291753)
(32.6489 0 0.674992)
(32.9505 -5.26211e-21 0.718762)
(33.2876 0 0.669682)
(33.6182 -6.61452e-21 0.506997)
(33.8793 -1.34858e-20 0.245548)
(34.02 0 -0.0829399)
(34.0119 6.72867e-21 -0.447052)
(33.8436 0 -0.820694)
(33.5157 8.99799e-22 -1.18367)
(33.0377 -2.59186e-20 -1.52151)
(32.4256 0 -1.8249)
(31.6997 0 -2.08896)
(30.8821 -1.1093e-20 -2.31207)
(29.9953 0 -2.49499)
(29.0602 0 -2.63999)
(28.0957 0 -2.75034)
(27.1181 -1.63899e-20 -2.82982)
(26.1405 -1.5105e-20 -2.88237)
(25.1736 -1.3712e-20 -2.91188)
(24.2253 0 -2.92197)
(23.3016 0 -2.91592)
(22.4063 -1.06972e-20 -2.89663)
(21.5421 9.7672e-21 -2.86663)
(20.7103 -8.8997e-21 -2.82803)
(19.9116 -1.61824e-20 -2.78266)
(19.1458 2.92839e-20 -2.73202)
(18.4125 -5.4417e-23 -2.67736)
(17.7109 -1.19721e-20 -2.61971)
(17.0398 -1.07607e-20 -2.55992)
(16.398 0 -2.49868)
(15.7844 0 -2.43657)
(15.1975 -7.62115e-21 -2.37404)
(14.6361 0 -2.31146)
(14.0989 1.17781e-20 -2.24913)
(13.5845 1.02351e-20 -2.18728)
(13.0919 -8.80186e-21 -2.12611)
(12.6197 0 -2.06575)
(12.167 6.26714e-21 -2.00632)
(11.7325 5.14346e-21 -1.94791)
(11.3153 3.54332e-24 -1.89057)
(10.9144 -6.29948e-21 -1.83435)
(10.529 0 -1.77927)
(10.1581 -2.92075e-21 -1.72535)
(9.80095 0 -1.67259)
(9.45676 0 -1.62098)
(9.12482 0 -1.57052)
(8.80442 1.35809e-23 -1.52118)
(8.49495 0 -1.47293)
(8.19576 -4.25404e-21 -1.42576)
(7.9063 1.0188e-20 -1.37964)
(7.626 1.17287e-20 -1.33453)
(7.35436 0 -1.2904)
(7.09085 -1.4333e-20 -1.24721)
(6.83507 -3.08368e-20 -1.20494)
(6.58649 0 -1.16353)
(6.34478 0 -1.12297)
(6.10945 1.80052e-20 -1.08319)
(5.88022 1.86339e-20 -1.0442)
(5.6566 -1.92059e-20 -1.00591)
(5.43842 -3.93115e-20 -0.968346)
(5.22513 0 -0.931401)
(5.01668 0 -0.895121)
(4.81247 2.82978e-23 -0.859382)
(4.61259 -4.15429e-20 -0.824258)
(4.41634 0 -0.789593)
(4.22398 4.19215e-20 -0.755503)
(4.03468 0 -0.721792)
(3.84891 0 -0.688625)
(3.66567 0 -0.655759)
(3.48569 0 -0.623422)
(3.30777 3.42653e-23 -0.59131)
(3.13293 -3.20378e-23 -0.559728)
(2.95972 -8.05336e-20 -0.528301)
(2.78953 0 -0.497428)
(2.6206 -7.83843e-20 -0.466647)
(2.45476 0 -0.436467)
(2.2899 -1.51737e-19 -0.406327)
(2.12833 1.48916e-19 -0.376863)
(1.96758 -1.45971e-19 -0.347406)
(1.81047 -1.42957e-19 -0.318724)
(1.65415 0 -0.29004)
(1.50194 1.36458e-19 -0.262253)
(1.35069 0 -0.234484)
(1.20406 -1.29656e-19 -0.207744)
(1.05886 -1.26092e-19 -0.18109)
(0.918653 2.45102e-19 -0.155572)
(0.780771 0 -0.130284)
(0.647942 -4.61016e-19 -0.106159)
(0.518814 0 -0.0825515)
(0.394705 2.15731e-19 -0.0599604)
(0.274461 0 -0.038265)
(0.163577 2.00959e-19 -0.0176806)
(0.0456233 0 0.00308069)
(-0.0401199 3.72672e-19 0.0187191)
(-0.159253 -3.57796e-19 0.0427554)
(-0.253159 3.43425e-19 0.0517138)
(-0.249066 3.31106e-19 0.0656134)
(-0.588587 0 0.11661)
(-0.277091 -6.13973e-19 0.0457571)
(-0.631586 5.71802e-19 0.167224)
(-0.94584 0 0.138165)
(0.0190146 2.75713e-19 0.0248649)
(-1.66552 0 0.368475)
(-0.441095 0 -0.0192443)
(-0.33231 -4.62061e-19 0.201157)
(-2.83137 0 0.499415)
(0.833888 0 -0.252604)
(-1.91504 3.53416e-19 0.597681)
(-2.65191 7.47565e-19 0.332847)
(1.16971 4.10777e-19 -0.220718)
(-3.72406 0 0.971963)
(-2.42886 0 0.173572)
(1.59093 0 -0.353471)
(-2.77303 0 0.911973)
(-4.82281 5.35566e-19 0.864605)
(-0.718674 6.11281e-19 -0.154268)
(0.067021 0 0.0558811)
(-2.56655 0 0.701362)
(-3.28516 0 0.491232)
(1.13332 0 -0.426527)
(32.6484 4.21647e-21 0.386555)
(32.8806 0 0.402933)
(33.1364 4.93321e-21 0.362685)
(33.4013 0 0.249773)
(33.6445 6.03295e-21 0.06474)
(33.8343 0 -0.177717)
(33.948 -6.32409e-21 -0.458466)
(33.9705 1.16016e-20 -0.75957)
(33.8926 2.36846e-20 -1.06587)
(33.7096 7.27684e-22 -1.36537)
(33.4213 0 -1.64908)
(33.0308 0 -1.91078)
(32.5449 0 -2.14662)
(31.9728 0 -2.35451)
(31.3253 0 -2.53371)
(30.6145 0 -2.68449)
(29.8529 1.47717e-20 -2.80786)
(29.0527 -1.36927e-20 -2.90542)
(28.2253 1.28839e-20 -2.97913)
(27.3814 0 -3.03122)
(26.53 0 -3.06401)
(25.679 9.85066e-21 -3.07983)
(24.8347 9.01787e-21 -3.08091)
(24.0025 8.23547e-21 -3.06936)
(23.1862 0 -3.04711)
(22.389 -1.37244e-20 -3.01589)
(21.6129 -2.47693e-20 -2.97725)
(20.8595 1.11498e-20 -2.93251)
(20.1297 0 -2.88287)
(19.4239 0 -2.82931)
(18.7423 0 -2.7727)
(18.0847 7.12512e-21 -2.71376)
(17.4506 0 -2.65312)
(16.8396 0 -2.59129)
(16.2511 9.58888e-21 -2.52872)
(15.6843 8.26853e-21 -2.46575)
(15.1384 0 -2.40269)
(14.6126 5.88278e-21 -2.3398)
(14.1062 -9.66098e-21 -2.27727)
(13.6182 -3.85763e-21 -2.21526)
(13.1479 2.96063e-21 -2.15392)
(12.6944 0 -2.09334)
(12.257 0 -2.03361)
(11.8349 0 -1.97479)
(11.4273 1.00321e-22 -1.91693)
(11.0337 0 -1.86005)
(10.6531 2.13711e-21 -1.80417)
(10.2851 3.0921e-21 -1.74931)
(9.92884 0 -1.69547)
(9.58388 -4.77675e-21 -1.64264)
(9.24955 0 -1.5908)
(8.92533 0 -1.53995)
(8.61063 -1.34111e-20 -1.49005)
(8.30501 2.14586e-23 -1.4411)
(8.00788 1.53546e-20 -1.39304)
(7.71888 0 -1.34588)
(7.43743 0 -1.29955)
(7.16324 -1.74877e-20 -1.25406)
(6.89573 0 -1.20933)
(6.63471 3.68888e-20 -1.16538)
(6.37954 0 -1.12211)
(6.13017 0 -1.07957)
(5.88589 7.72573e-20 -1.03762)
(5.64681 7.79171e-20 -0.996364)
(5.41209 3.9162e-20 -0.955608)
(5.18206 0 -0.9155)
(4.95571 0 -0.875806)
(4.73361 3.92183e-20 -0.836733)
(4.51457 7.81223e-20 -0.797986)
(4.29944 0 -0.759845)
(4.08679 7.70866e-20 -0.721943)
(3.87783 -7.63534e-20 -0.684656)
(3.67082 7.54949e-20 -0.647523)
(3.46742 -7.45073e-20 -0.611035)
(3.2655 7.34673e-20 -0.574628)
(3.06725 0 -0.538922)
(2.87013 0 -0.503235)