/*--------------------------------*- C++ -*----------------------------------*\
| =========                 |                                                 |
| \\      /  F ield         | OpenFOAM: The Open Source CFD Toolbox           |
|  \\    /   O peration     | Version:  2412                                  |
|   \\  /    A nd           | Website:  www.openfoam.com                      |
|    \\/     M anipulation  |                                                 |
\*---------------------------------------------------------------------------*/
FoamFile
{
    version     2.0;
    format      ascii;
    arch        "LSB;label=32;scalar=64";
    class       volScalarField;
    location    "0.815";
    object      Co;
}
// * * * * * * * * * * * * * * * * * * * * * * * * * * * * * * * * * * * * * //

dimensions      [0 0 0 0 0 0 0];

internalField   nonuniform List<scalar> 
12600
(
0.375426
0.154461
0.0610146
0.0269891
0.014536
0.00899243
0.00584571
0.00381076
0.00241798
0.00143769
0.00073878
0.000371088
0.000413417
0.000607401
0.000735839
0.000823856
0.000871801
0.00089645
0.000899524
0.000887935
0.000865035
0.00083335
0.000798281
0.000762806
0.000723614
0.000682903
0.000641494
0.000599035
0.000557516
0.000517163
0.000478234
0.000441092
0.000405913
0.000372789
0.000341732
0.000312868
0.000286148
0.00026143
0.000238728
0.000217898
0.00019886
0.000181466
0.000165562
0.000151014
0.0001377
0.000125509
0.000114358
0.000104233
9.51283e-05
8.70822e-05
8.01296e-05
7.42674e-05
6.94578e-05
6.55533e-05
6.23332e-05
5.92983e-05
5.60887e-05
5.19927e-05
4.62283e-05
3.80479e-05
2.69294e-05
1.62851e-05
2.07019e-05
3.59412e-05
4.70134e-05
5.28434e-05
5.43748e-05
5.30431e-05
5.0253e-05
4.7517e-05
4.39599e-05
4.00289e-05
3.58241e-05
3.23254e-05
3.07651e-05
3.16747e-05
3.30764e-05
3.37927e-05
3.54772e-05
4.11567e-05
4.72845e-05
4.92504e-05
4.64134e-05
4.00972e-05
4.52933e-05
9.39394e-05
0.000163534
0.000215146
0.00023664
0.000222379
0.000179432
0.00022751
0.000395518
0.000371094
0.000262333
6.27785e-05
1.86265e-05
2.47762e-05
3.39346e-05
5.44348e-05
6.86955e-05
6.42586e-05
5.84218e-05
8.75877e-05
0.000173732
0.000237678
0.000249858
0.00023323
0.000204569
0.000167564
0.000133176
8.89929e-05
4.18887e-05
1.89748e-05
2.01705e-05
1.87818e-05
1.52561e-05
1.13134e-05
2.98933e-06
6.57501e-06
0.603227
0.38964
0.226877
0.130024
0.0781509
0.0500789
0.0336584
0.0231895
0.0160866
0.0110741
0.00745125
0.00478933
0.00281855
0.00135609
0.000966126
0.00139214
0.00177527
0.00204179
0.00220439
0.002293
0.00232293
0.00230607
0.00225958
0.00219157
0.00210794
0.00202797
0.00193663
0.00183424
0.00172762
0.00161944
0.0015111
0.00140471
0.00130158
0.00120261
0.00110823
0.00101929
0.000936068
0.00085826
0.000786159
0.000719498
0.000658153
0.000601815
0.000550064
0.000502531
0.000458878
0.000418762
0.000381898
0.000348224
0.00031772
0.000290503
0.000266722
0.000246425
0.000229586
0.000215844
0.000204541
0.000194596
0.000184609
0.00017262
0.000156174
0.000132705
0.000100096
6.74199e-05
8.15119e-05
0.000129484
0.000161976
0.000176391
0.000176929
0.00016866
0.000158548
0.00014901
0.000136532
0.00012304
0.000108824
9.72838e-05
9.65086e-05
0.000104021
0.000112065
0.000116356
0.000124332
0.000146298
0.000165636
0.000164961
0.000154943
0.00014324
0.000195101
0.000387188
0.000604096
0.00074331
0.000757834
0.000711288
0.000622016
0.000881172
0.00142138
0.00117418
0.00101978
0.000272632
7.71335e-05
9.67814e-05
0.000128524
0.000199737
0.000231623
0.000202824
0.000230883
0.000388896
0.000672789
0.000820197
0.000788238
0.000724528
0.000633281
0.000513768
0.000424491
0.000300242
0.000147239
7.55534e-05
7.52913e-05
6.40756e-05
5.36509e-05
4.41723e-05
7.96976e-06
2.75362e-05
0.670145
0.540417
0.388758
0.263428
0.175827
0.119017
0.0825492
0.0584728
0.0419415
0.0301951
0.0216299
0.0152693
0.0104891
0.00685641
0.00415353
0.00207672
0.00162793
0.00230473
0.00277176
0.00308159
0.00326614
0.00334985
0.00336322
0.00331809
0.00323282
0.00313242
0.00303231
0.00291961
0.00278851
0.00264423
0.00249163
0.0023357
0.00217994
0.00202691
0.00187793
0.00173526
0.00160011
0.00147227
0.00135266
0.00124119
0.00113789
0.00104254
0.000954548
0.000873407
0.00079865
0.00072969
0.000666005
0.000607437
0.000553928
0.000505679
0.000463013
0.000426154
0.000395298
0.000370134
0.000349817
0.000333162
0.000317988
0.000301457
0.000279559
0.000247593
0.000200843
0.000150202
0.000174356
0.000252541
0.000299536
0.000313125
0.00030356
0.000281029
0.000264238
0.000248569
0.000226864
0.000202992
0.000177051
0.000155296
0.000163063
0.00018377
0.000202403
0.000211124
0.000227804
0.000272122
0.000303355
0.000285867
0.000277045
0.000290084
0.000448303
0.000835433
0.00118631
0.00136315
0.00128293
0.00121622
0.0011841
0.00184387
0.00281509
0.00196005
0.00212088
0.000618783
0.000166548
0.000200347
0.000255314
0.000386546
0.000410382
0.000358642
0.000545854
0.000914509
0.0013577
0.00149321
0.00130378
0.00120639
0.00106083
0.000854422
0.000743376
0.00056575
0.000295739
0.000163728
0.000146153
0.00011642
0.000104065
9.46516e-05
9.7931e-06
6.2114e-05
0.669523
0.608802
0.503558
0.388793
0.287863
0.209341
0.15207
0.111227
0.0819758
0.0606977
0.0449494
0.0331167
0.0241237
0.017221
0.0119464
0.0078438
0.00472434
0.00273289
0.00252591
0.00319544
0.00365032
0.00392988
0.00408347
0.00413146
0.00410262
0.0040165
0.00390685
0.00379193
0.00368544
0.00354792
0.00338452
0.00320548
0.00301789
0.00282707
0.00263588
0.0024488
0.00226871
0.00209585
0.0019322
0.00177821
0.00163434
0.00150071
0.00137674
0.00126188
0.00115566
0.00105726
0.000965919
0.000881357
0.000803457
0.000732521
0.000669102
0.000613736
0.000567008
0.000528914
0.000498837
0.00047552
0.000456607
0.000438622
0.000416039
0.000381732
0.000327505
0.00026156
0.00029516
0.000401362
0.000456927
0.000461299
0.000433077
0.000389212
0.000369055
0.000348166
0.000316749
0.000281175
0.00024124
0.000207164
0.000233398
0.000273595
0.000306291
0.000319555
0.000345619
0.000415821
0.000455756
0.000405394
0.000416676
0.000482842
0.00080174
0.00142404
0.00188277
0.00204009
0.00178563
0.00172742
0.00184903
0.00297853
0.00446205
0.00260892
0.00349639
0.00111365
0.000293874
0.00033388
0.000411766
0.000605882
0.000587784
0.000545734
0.00100019
0.00163726
0.00217835
0.00219971
0.00175779
0.00167386
0.00147648
0.00117794
0.0010768
0.000871528
0.000476123
0.000277729
0.000228244
0.000176805
0.000166661
0.000158508
7.87057e-06
0.000108927
0.645466
0.620785
0.561138
0.477761
0.387759
0.304456
0.234514
0.179078
0.136383
0.103818
0.0789557
0.0598696
0.0451234
0.0336551
0.0247343
0.0177373
0.0122928
0.00802154
0.00470775
0.00313362
0.00335682
0.00394895
0.00434076
0.00456359
0.00465874
0.00465563
0.00457673
0.00446307
0.00433868
0.00425815
0.00413045
0.00396537
0.00377525
0.00356988
0.00335468
0.0031373
0.00292319
0.0027136
0.00251208
0.00232008
0.00213883
0.00196915
0.00181068
0.00166298
0.00152575
0.001398
0.00127876
0.00116761
0.00106439
0.000969521
0.000883845
0.000808334
0.000744152
0.000691788
0.000651142
0.000621239
0.000599845
0.000583118
0.000564154
0.000533165
0.000477721
0.000398192
0.000439702
0.000571941
0.000630831
0.000618394
0.000563501
0.0004915
0.000473132
0.000448201
0.000406498
0.00035757
0.000301022
0.000258039
0.000309311
0.000374871
0.000424729
0.00044218
0.000476822
0.000573997
0.000617355
0.000515931
0.000576714
0.000723334
0.00125056
0.00213588
0.00266343
0.0027361
0.00224141
0.00223615
0.00260319
0.00414845
0.00626104
0.00300189
0.00507037
0.00176534
0.000466426
0.000494869
0.000593793
0.000848338
0.000745948
0.000777387
0.00159176
0.00252485
0.00307927
0.00288444
0.00211911
0.00212075
0.00187075
0.00147654
0.0014147
0.00120558
0.000696474
0.000428085
0.000317665
0.000246338
0.0002414
0.000231755
1.56145e-05
0.000172486
0.618051
0.605265
0.574666
0.523207
0.456809
0.38475
0.31526
0.253363
0.201026
0.158187
0.12376
0.096339
0.0745714
0.0572931
0.0435963
0.0327094
0.0240883
0.0172455
0.011842
0.00759218
0.00427379
0.00329996
0.00404029
0.00453679
0.00483841
0.00498744
0.00501735
0.00495812
0.00483436
0.00473305
0.0046631
0.00456013
0.00440739
0.00421889
0.00400457
0.00377647
0.00354373
0.00330937
0.00307911
0.00285604
0.00264259
0.00244069
0.00225049
0.00207189
0.00190497
0.00174866
0.00160187
0.00146406
0.00133504
0.0012154
0.00110631
0.00100931
0.000926308
0.000858537
0.000806604
0.000770166
0.000747394
0.000734322
0.000722777
0.000700151
0.000649207
0.000556688
0.000603464
0.00076012
0.000818075
0.000782378
0.000693625
0.000587153
0.00057687
0.000549456
0.000496881
0.00043272
0.000356647
0.000311978
0.000392706
0.000488752
0.00055825
0.000578898
0.000619692
0.000742389
0.000781811
0.000609459
0.000760345
0.00105712
0.00183141
0.00294995
0.00349488
0.00341455
0.00263114
0.00273742
0.00343702
0.0052415
0.00813187
0.00316427
0.00676531
0.0025756
0.000691866
0.000679562
0.000796625
0.00110383
0.000867429
0.00106431
0.00231247
0.00353867
0.00400209
0.00349785
0.00236833
0.00254013
0.00223554
0.00174472
0.00174945
0.00155685
0.000937996
0.0006008
0.000411445
0.000325564
0.000327384
0.000310443
3.57955e-05
0.0002514
0.594111
0.582161
0.564347
0.534522
0.491332
0.437911
0.379584
0.321398
0.267019
0.218556
0.176814
0.141703
0.112637
0.0888128
0.0694278
0.0537094
0.0410251
0.0308071
0.0226109
0.0160634
0.0108559
0.00675847
0.00426368
0.00394837
0.00455668
0.00494134
0.00514952
0.00522159
0.00518834
0.00507704
0.00498555
0.00492322
0.00485617
0.00472775
0.00454782
0.00433551
0.00410521
0.00386266
0.00361659
0.00337246
0.00313449
0.00290621
0.0026887
0.00248248
0.00228825
0.00210508
0.00193185
0.00176795
0.00161321
0.00146844
0.00133521
0.00121574
0.00111282
0.00102867
0.000964845
0.000921914
0.000898706
0.000891366
0.000890571
0.000880801
0.000839586
0.000742493
0.00079047
0.000961531
0.00101535
0.00095118
0.000822348
0.000675646
0.000679967
0.000652103
0.000588189
0.000506828
0.000408181
0.000369021
0.000484675
0.000615392
0.000706365
0.000728699
0.000771731
0.000915985
0.000942168
0.000677562
0.000970173
0.00147558
0.00252892
0.00384172
0.0043414
0.00404104
0.00294129
0.00322773
0.00433835
0.00619698
0.0100322
0.00375217
0.0085043
0.00353824
0.000977866
0.000882772
0.00101521
0.0013615
0.000935316
0.00141529
0.00314749
0.00463256
0.00488955
0.0040028
0.00250237
0.00292718
0.00256756
0.00198134
0.00207546
0.00191572
0.00119134
0.000790772
0.000507486
0.000414618
0.000423474
0.000394122
6.60207e-05
0.000341672
0.574055
0.560307
0.545845
0.526603
0.499272
0.463109
0.419831
0.372316
0.323583
0.276213
0.232095
0.192376
0.157567
0.127679
0.102427
0.0813324
0.0638777
0.0495296
0.0378098
0.0282919
0.020604
0.014446
0.00954016
0.00567063
0.00406658
0.00442857
0.00490075
0.00517483
0.0052936
0.00529377
0.00520465
0.00511596
0.0050567
0.00503658
0.00493727
0.00477638
0.00457683
0.00434851
0.00410426
0.00385288
0.00360114
0.00335481
0.00311641
0.00288745
0.00266964
0.00246237
0.00226469
0.00207603
0.00189631
0.00172664
0.00156903
0.00142652
0.00130294
0.00120167
0.00112548
0.00107608
0.00105321
0.00105334
0.00106614
0.00107314
0.00104638
0.000954299
0.000998438
0.00117163
0.00121929
0.00112289
0.000948976
0.000757103
0.000781834
0.000756097
0.000680632
0.000580165
0.000455899
0.000430765
0.000585696
0.000754106
0.000867662
0.000889719
0.000929733
0.00108917
0.00109088
0.000757279
0.00120851
0.00196619
0.00332024
0.00478312
0.00516642
0.00458702
0.00316749
0.00370711
0.00528732
0.00701565
0.0119505
0.00493544
0.0102113
0.00463836
0.00133157
0.00109785
0.00124447
0.00160985
0.000934085
0.00183604
0.00407523
0.00575579
0.00569049
0.00437905
0.00262286
0.00328006
0.00286763
0.00218796
0.00238829
0.00227289
0.0014501
0.000995628
0.000604726
0.000512926
0.000528088
0.000485194
0.000110394
0.000440725
0.556619
0.541544
0.527049
0.511459
0.492267
0.467695
0.437369
0.402037
0.363132
0.322376
0.281482
0.241948
0.204945
0.17126
0.141324
0.115239
0.0928818
0.0739677
0.0581399
0.0450167
0.0342224
0.025421
0.0182954
0.0125772
0.00802996
0.00491622
0.00417416
0.00473991
0.00508431
0.00525647
0.00529598
0.00523531
0.00514325
0.00508217
0.00511211
0.00505098
0.00491999
0.0047358
0.004517
0.00427704
0.00402614
0.00377321
0.00352284
0.00327803
0.00304197
0.0028147
0.00259566
0.00238448
0.00218132
0.00198762
0.00180598
0.00164033
0.0014957
0.00137684
0.00128794
0.00123212
0.00121022
0.00121925
0.00124798
0.00127508
0.00126704
0.00118463
0.00121893
0.00138574
0.00142649
0.00129569
0.0010731
0.00083206
0.000881219
0.000860855
0.000774039
0.000652795
0.000500057
0.000498037
0.000695253
0.000903144
0.00103971
0.00105924
0.00108989
0.00125589
0.00122018
0.0008752
0.0014769
0.00252558
0.00418931
0.00574322
0.00593456
0.00503241
0.00331606
0.0041779
0.00625644
0.0077411
0.0138744
0.00632584
0.0118117
0.00585281
0.00175884
0.00131685
0.00147941
0.00183693
0.000874207
0.00240305
0.00513959
0.00685617
0.00636546
0.00462684
0.00281748
0.00360134
0.00314178
0.00236942
0.00268414
0.00261921
0.00170935
0.0012142
0.000703195
0.000619189
0.000639482
0.000577645
0.000163868
0.000545658
0.540916
0.525295
0.510298
0.495489
0.479514
0.461
0.439085
0.413464
0.384335
0.352309
0.31828
0.283283
0.248381
0.214569
0.182699
0.153408
0.127098
0.103931
0.083879
0.0667756
0.0523664
0.0403648
0.0304659
0.0223803
0.0158386
0.0105988
0.00644717
0.00442388
0.00447513
0.00489673
0.00512766
0.00521215
0.00518663
0.0050807
0.00506315
0.00509874
0.00508494
0.00498516
0.00482328
0.0046196
0.00438915
0.00414502
0.0038948
0.00364357
0.0033966
0.00315507
0.00291911
0.00268877
0.00246461
0.00224858
0.00204392
0.00185558
0.00168996
0.00155334
0.00145157
0.00138937
0.00136893
0.00138794
0.00143449
0.00148447
0.00149889
0.00143073
0.00144782
0.00159907
0.00163349
0.00146785
0.00119456
0.000901494
0.000976282
0.000965279
0.000867897
0.000724623
0.00054092
0.000570783
0.000811818
0.00105973
0.00121915
0.0012338
0.00124797
0.0014099
0.00132227
0.00101404
0.00177623
0.00314745
0.0051162
0.00668942
0.00661408
0.00536857
0.00340539
0.00464361
0.00721901
0.00842286
0.0157628
0.00783307
0.0132295
0.00715083
0.00226341
0.00153092
0.001715
0.00203058
0.000954681
0.00313273
0.00632894
0.00788461
0.00689098
0.00476403
0.0030325
0.00389592
0.0033987
0.0025322
0.00295907
0.00294492
0.00196498
0.00144604
0.00080407
0.000731222
0.000755757
0.000669953
0.000224574
0.000653581
0.526582
0.510824
0.495579
0.480834
0.4659
0.449994
0.432495
0.412936
0.391031
0.366722
0.340182
0.311782
0.282055
0.251655
0.22132
0.191797
0.163779
0.13783
0.114336
0.0935017
0.0753589
0.0598134
0.0466783
0.0357191
0.0266806
0.0193083
0.0133611
0.00861773
0.00515192
0.00412148
0.00462596
0.00492195
0.00505858
0.00507011
0.0049938
0.00497878
0.00501099
0.00504449
0.00498245
0.00484831
0.00466446
0.00444973
0.00421586
0.0039709
0.00372297
0.00347498
0.00322821
0.00298345
0.00274189
0.00250616
0.00228027
0.00207035
0.00188428
0.00173009
0.00161549
0.00154702
0.00152838
0.00155815
0.00162391
0.00169899
0.00173918
0.00168966
0.00168095
0.0018068
0.00183677
0.00163764
0.00131337
0.000966639
0.00106445
0.00106764
0.000961236
0.000795294
0.000578653
0.000647838
0.000932757
0.00122012
0.00140177
0.00140932
0.00139949
0.00154503
0.00138949
0.00116904
0.00210627
0.00382248
0.00607742
0.00758915
0.00717945
0.0056001
0.00346495
0.00510664
0.00815937
0.00908613
0.0175323
0.00935867
0.0143849
0.00849459
0.00284585
0.00173088
0.0019459
0.00217897
0.00121558
0.00394736
0.00754228
0.00879876
0.00726169
0.00482247
0.00322294
0.00417047
0.0036486
0.00268481
0.00320942
0.00324031
0.00221287
0.00169012
0.000909671
0.000845899
0.000874985
0.000761079
0.000290311
0.000761793
0.513446
0.4977
0.482416
0.4677
0.453137
0.438285
0.422819
0.406445
0.388875
0.369875
0.349301
0.327106
0.303357
0.278237
0.252067
0.2253
0.1985
0.172284
0.147254
0.123935
0.10271
0.0838086
0.0673022
0.0531359
0.0411642
0.0311874
0.0229797
0.0163103
0.0109575
0.00671513
0.00445418
0.00428309
0.00465297
0.00484297
0.00490153
0.0048632
0.00483459
0.0048528
0.00493992
0.00492094
0.00481884
0.00466108
0.00446523
0.00424349
0.00400791
0.00376395
0.00351461
0.0032619
0.00300796
0.00275632
0.00251196
0.0022823
0.00207692
0.00190576
0.0017786
0.00170401
0.0016874
0.00172839
0.00181431
0.00191618
0.00198498
0.00195837
0.0019141
0.00200409
0.00203278
0.00180328
0.00142955
0.00102885
0.00114241
0.00116552
0.00105259
0.000864145
0.00061327
0.000726898
0.00105443
0.00137982
0.0015828
0.00158136
0.00153999
0.00165543
0.00141476
0.0013425
0.00246571
0.00453832
0.00704685
0.00841146
0.00761364
0.00574518
0.00353167
0.00556694
0.00907691
0.00972675
0.0190687
0.0108226
0.0151882
0.00983942
0.00350251
0.00190788
0.00216602
0.00227085
0.0015366
0.00483203
0.00873937
0.00956483
0.00748963
0.00483802
0.0033867
0.00443012
0.00390034
0.00283692
0.00343227
0.00349708
0.00244812
0.00194309
0.00102342
0.000959101
0.000995226
0.000850458
0.00035895
0.000868068
0.501368
0.485688
0.470462
0.455831
0.441494
0.427155
0.412647
0.397834
0.382553
0.36663
0.349899
0.33221
0.313432
0.293465
0.272281
0.24995
0.226677
0.202804
0.178794
0.155188
0.132542
0.111357
0.0920205
0.0747725
0.0597059
0.0467888
0.0358981
0.026854
0.0194486
0.0134662
0.00869796
0.00508126
0.00387968
0.00432404
0.00457802
0.00469002
0.00468518
0.00463853
0.00466617
0.00478138
0.00480813
0.00474463
0.00461586
0.00444006
0.00423464
0.00400873
0.00376788
0.00351591
0.00325638
0.00299408
0.00273516
0.00248856
0.00226569
0.00207865
0.0019395
0.00185904
0.00184457
0.00189695
0.00200353
0.00213341
0.00223326
0.00223363
0.00214305
0.00218616
0.00221785
0.00196283
0.00154299
0.00108938
0.00120615
0.00125582
0.00113993
0.000930158
0.00064456
0.000804559
0.00117239
0.00153385
0.00175718
0.00174535
0.00166522
0.00173579
0.00139171
0.00153624
0.00289718
0.00532297
0.00799671
0.00912838
0.00791017
0.00583403
0.00364353
0.00602316
0.00998042
0.0103239
0.0202445
0.0121641
0.0155359
0.0111338
0.00422438
0.00205396
0.0023681
0.00229622
0.00191875
0.00576983
0.00988101
0.0101624
0.00760194
0.00484328
0.00352299
0.00467765
0.00416053
0.0029996
0.00362689
0.0037108
0.00266478
0.00219773
0.0011497
0.00106576
0.00111454
0.000937908
0.000428679
0.000970787
0.49023
0.474644
0.459514
0.444996
0.430854
0.416854
0.402894
0.388912
0.37483
0.360557
0.345998
0.331051
0.315594
0.299478
0.282541
0.264638
0.245682
0.22568
0.204771
0.183228
0.161458
0.139961
0.119267
0.0998652
0.0821434
0.0663473
0.0525782
0.0408131
0.0309388
0.0227846
0.0161518
0.0108372
0.00663709
0.00426872
0.00394554
0.00427374
0.00443298
0.00447383
0.00442718
0.00447655
0.00457488
0.00465343
0.00463181
0.00453259
0.00438126
0.00419219
0.00397462
0.00373503
0.00347905
0.0032132
0.00294511
0.00268548
0.00244782
0.0022466
0.00209637
0.00201042
0.00199812
0.0020618
0.00218916
0.00234778
0.00248077
0.00251209
0.00236351
0.00234828
0.0023882
0.00211407
0.00165322
0.0011491
0.00125098
0.00133473
0.00122071
0.00099192
0.000672033
0.000876532
0.00128169
0.00167715
0.00191991
0.00189687
0.00177129
0.00178147
0.00131496
0.00175157
0.00346246
0.00622173
0.00889772
0.00971759
0.00807454
0.00590537
0.00383141
0.00647616
0.0108762
0.0108498
0.0209324
0.0133334
0.015318
0.0123199
0.0049961
0.00216252
0.00254353
0.00224682
0.00235996
0.00673748
0.0109262
0.0105869
0.00763224
0.00485992
0.00363009
0.00491239
0.00443231
0.00318406
0.00379595
0.00388318
0.00285611
0.00244262
0.00129357
0.00116001
0.00123093
0.00102354
0.000498262
0.00106901
0.479938
0.464459
0.44944
0.435041
0.421073
0.40734
0.393763
0.38031
0.366938
0.353595
0.340237
0.326823
0.313297
0.299573
0.285521
0.270974
0.255747
0.239664
0.222607
0.204546
0.185575
0.165933
0.145994
0.126236
0.107178
0.0893047
0.0729999
0.0585091
0.045932
0.0352446
0.0263327
0.01903
0.0131393
0.00846131
0.00482238
0.00352726
0.00392207
0.0041436
0.00423411
0.00422203
0.00425121
0.00432789
0.00446242
0.00448279
0.00441822
0.00429149
0.00411716
0.00390559
0.00366545
0.00340562
0.00313568
0.00286842
0.00261977
0.00240682
0.0022469
0.00215602
0.0021459
0.00222056
0.00236843
0.00255617
0.00272405
0.00279016
0.00266384
0.00257355
0.00253993
0.00225438
0.00175922
0.0012083
0.00127169
0.0013978
0.00129181
0.00104762
0.000694882
0.000937978
0.00137731
0.00180492
0.00206638
0.00203183
0.00185477
0.00178857
0.00118031
0.00198899
0.00406245
0.00712777
0.00972179
0.0101654
0.00812369
0.00600117
0.00411175
0.00693181
0.0117557
0.0112719
0.0210342
0.0143045
0.0144497
0.0133375
0.00579548
0.00222854
0.00268249
0.00211648
0.00285505
0.00771087
0.0118444
0.0108524
0.00761452
0.00489737
0.00370597
0.00513132
0.00471553
0.00340018
0.00394668
0.00402285
0.00301555
0.00266424
0.00146006
0.00123545
0.00134225
0.00110764
0.000567116
0.0011624
0.470407
0.455041
0.440138
0.425857
0.412043
0.39853
0.385251
0.372184
0.3593
0.346561
0.333937
0.321411
0.308973
0.296598
0.284234
0.271782
0.259102
0.246009
0.232304
0.217799
0.202351
0.185908
0.168541
0.150469
0.132053
0.113761
0.0961074
0.0795735
0.0645408
0.0512472
0.039782
0.0301128
0.0221174
0.015624
0.0104435
0.00636998
0.00396989
0.00353482
0.0038253
0.00396387
0.00399344
0.00399479
0.00405923
0.00423687
0.00430471
0.00427543
0.0041715
0.00400919
0.0038015
0.00356063
0.00329877
0.00303128
0.00277686
0.00255566
0.00238806
0.00229315
0.00228524
0.00237038
0.00253822
0.00275509
0.00295937
0.00306403
0.00297132
0.0027923
0.00266896
0.00238068
0.0018593
0.0012665
0.00126275
0.00144012
0.00134966
0.00109505
0.000711973
0.000983922
0.00145451
0.00191294
0.00219255
0.00214656
0.00191261
0.00175391
0.001065
0.00224795
0.0046851
0.00801549
0.0104436
0.010467
0.00808455
0.00616084
0.00448249
0.00740178
0.0125914
0.0116025
0.0205831
0.0151106
0.012929
0.0141322
0.00659362
0.00224861
0.0027746
0.00190139
0.00339593
0.0086671
0.0126129
0.0109848
0.00757843
0.00495378
0.0037476
0.00532991
0.00500658
0.00365323
0.00409075
0.00414368
0.00314604
0.00285827
0.00165282
0.00128557
0.00144605
0.00119042
0.000635307
0.00125106
0.461566
0.446311
0.431525
0.417357
0.403682
0.390355
0.377317
0.364552
0.352036
0.339738
0.327627
0.31569
0.303924
0.292333
0.280911
0.26963
0.258428
0.247197
0.235782
0.223993
0.211624
0.198473
0.184386
0.169299
0.153274
0.13652
0.119393
0.102359
0.0859356
0.0706029
0.0567355
0.0445584
0.0341434
0.0254393
0.0183171
0.0125919
0.00807331
0.00456799
0.0032082
0.0034723
0.00366892
0.00374185
0.00372108
0.00382445
0.00398429
0.00409965
0.00410432
0.00402041
0.0038679
0.00366366
0.00342344
0.00316583
0.00291291
0.00268832
0.00251595
0.00241838
0.00241286
0.0025079
0.00269493
0.00294069
0.00318266
0.00332958
0.00327733
0.00299592
0.00277104
0.00248944
0.00195097
0.00132228
0.0012186
0.00145648
0.00139036
0.00113168
0.000721869
0.00100966
0.00150915
0.00199762
0.00229497
0.00223776
0.00194199
0.00167489
0.00110107
0.00252643
0.00531676
0.00885961
0.0110446
0.0106272
0.00799182
0.00641602
0.00492374
0.00789759
0.0133449
0.012018
0.0199167
0.0158514
0.0108813
0.0146647
0.00736019
0.0022211
0.00280991
0.00160025
0.00413173
0.00972583
0.0132184
0.0110177
0.00754713
0.00502087
0.00375298
0.00550356
0.00529871
0.00394089
0.00424203
0.0042606
0.00324889
0.00302209
0.0018722
0.00130419
0.00153949
0.00127181
0.000703435
0.00133529
0.453351
0.438205
0.423534
0.409474
0.395923
0.382756
0.369918
0.357396
0.345171
0.333214
0.321495
0.309996
0.29871
0.287641
0.276796
0.266181
0.255785
0.245572
0.235468
0.225358
0.215082
0.204447
0.193236
0.181245
0.168313
0.154374
0.139484
0.123852
0.107834
0.091904
0.0765811
0.0623475
0.049567
0.0384428
0.0290259
0.02124
0.0149389
0.0099385
0.0060367
0.00362791
0.00309006
0.00334951
0.00346818
0.00348689
0.00356792
0.0037035
0.00386647
0.00390289
0.00383728
0.00369418
0.0034944
0.00326074
0.00301946
0.00279838
0.00262546
0.00252734
0.00252474
0.00262913
0.00283442
0.00310861
0.00338941
0.00358226
0.0035775
0.00326889
0.00292566
0.00257666
0.00203098
0.00137335
0.00113407
0.00144162
0.00140981
0.00115474
0.00072289
0.00101104
0.0015377
0.00205585
0.00237057
0.00230227
0.00194011
0.00154944
0.00124487
0.00282056
0.00594278
0.00963604
0.0115128
0.0106599
0.00788479
0.0067866
0.00540237
0.00841808
0.013976
0.0123329
0.0192285
0.0167268
0.00852747
0.0149117
0.00806925
0.00214614
0.00278015
0.00121482
0.0049101
0.0107279
0.0136569
0.0109875
0.00753711
0.00508835
0.00372295
0.00564874
0.00558326
0.00425183
0.00441169
0.00438454
0.00332158
0.00315338
0.00211346
0.0012857
0.00161917
0.00135112
0.000772453
0.00141546
0.445708
0.430667
0.416105
0.402147
0.38871
0.375681
0.363013
0.350691
0.338701
0.327017
0.315609
0.304456
0.293545
0.282873
0.272444
0.262267
0.25235
0.242694
0.233281
0.224066
0.214969
0.20587
0.196607
0.186981
0.176772
0.165776
0.153833
0.140874
0.126958
0.112295
0.0972501
0.0823051
0.0679877
0.0547768
0.0430228
0.0329011
0.0244304
0.0175146
0.0119852
0.00765168
0.00431752
0.0028919
0.00300227
0.00317748
0.00323732
0.00329189
0.00339321
0.00360269
0.00366987
0.00362281
0.00348982
0.00329994
0.00308468
0.00287703
0.00270976
0.00261442
0.00261588
0.00272927
0.00295186
0.00325389
0.00357451
0.00381691
0.00386684
0.00360583
0.00312648
0.00263811
0.00209552
0.00141654
0.00100466
0.00139077
0.00140399
0.0011614
0.000713234
0.000984571
0.00153699
0.00208454
0.00241617
0.00233674
0.00190399
0.00137612
0.00140363
0.00328181
0.00669364
0.0103234
0.011844
0.0105875
0.00780347
0.00727874
0.00587903
0.00894292
0.0144494
0.012584
0.0188103
0.0177689
0.00607425
0.0148565
0.00869724
0.00202569
0.00267941
0.0011063
0.00570427
0.0116428
0.0139346
0.010928
0.00755927
0.0051483
0.0036635
0.00576423
0.00585256
0.00456925
0.00460253
0.00451835
0.00337451
0.00326185
0.00236564
0.00122505
0.00168107
0.00142669
0.000843371
0.00149176
0.438589
0.423646
0.409189
0.395328
0.381993
0.369087
0.356565
0.344412
0.332616
0.321152
0.309995
0.299121
0.288514
0.278165
0.26807
0.258231
0.248657
0.239357
0.230335
0.221587
0.213087
0.204784
0.196597
0.1884
0.180028
0.17128
0.161939
0.151802
0.140711
0.128601
0.115532
0.101722
0.0875465
0.0734987
0.0601149
0.0478698
0.0370911
0.0279248
0.0203525
0.0142505
0.00943919
0.00571582
0.00328399
0.00263077
0.00286634
0.00297331
0.00299477
0.00314245
0.0033079
0.00340515
0.00337756
0.00326004
0.00309152
0.00291179
0.00275952
0.00267226
0.00268
0.00280254
0.00304157
0.00337074
0.00373203
0.00402754
0.0041395
0.0039375
0.0033542
0.00271341
0.00214047
0.00144835
0.000872602
0.00129944
0.00136918
0.00114892
0.000691167
0.000927156
0.0015037
0.00207997
0.00242797
0.00233734
0.00183039
0.00115434
0.00157396
0.00378285
0.00743818
0.0109045
0.0120422
0.0104384
0.00778488
0.00788474
0.00631614
0.00943598
0.014739
0.0128249
0.0184817
0.0185814
0.00362996
0.014485
0.00922193
0.00186344
0.00250482
0.00141099
0.00649699
0.0124506
0.0140657
0.0108669
0.00762018
0.00519726
0.00358569
0.00585144
0.00610342
0.00487908
0.004807
0.00465592
0.00342389
0.00335612
0.00261161
0.0011173
0.00172047
0.00149557
0.000916778
0.00156398
0.431951
0.417101
0.402742
0.388972
0.375731
0.362934
0.350539
0.338531
0.326897
0.315617
0.304665
0.294019
0.283661
0.273578
0.26376
0.254205
0.244912
0.235888
0.227141
0.218676
0.210494
0.202584
0.194917
0.187439
0.180065
0.172666
0.165074
0.157092
0.148507
0.139117
0.128771
0.117404
0.105085
0.0920391
0.0786546
0.0654381
0.052932
0.0416052
0.0317584
0.0234989
0.0167737
0.011429
0.00727159
0.00409919
0.00258688
0.00253434
0.00269904
0.00276252
0.00287752
0.00297848
0.00310843
0.00310544
0.00301475
0.00288465
0.0027615
0.00269078
0.00270896
0.00284173
0.0030967
0.00345232
0.00385495
0.004207
0.00438837
0.00425703
0.00373045
0.00291553
0.0021617
0.0014651
0.000811429
0.00116511
0.00130246
0.00111501
0.000655226
0.000835599
0.00143355
0.00203709
0.00240106
0.00229952
0.00171604
0.000884881
0.00175067
0.00428214
0.00813031
0.0113671
0.0121192
0.0102454
0.00785871
0.00858375
0.0066854
0.00985504
0.0148326
0.0131067
0.0183325
0.0191303
0.00302867
0.013778
0.00962298
0.00166522
0.00225788
0.00184718
0.00727262
0.0131373
0.0140713
0.0108235
0.0077228
0.00523594
0.00350292
0.0059132
0.00633872
0.00517838
0.00501348
0.00478602
0.0034903
0.00343933
0.00282979
0.000957408
0.00173194
0.00155371
0.00099244
0.00163138
0.425756
0.410992
0.396727
0.383042
0.369887
0.357188
0.344905
0.333022
0.321527
0.3104
0.299619
0.289162
0.279009
0.269146
0.259562
0.250246
0.241195
0.232409
0.223889
0.215643
0.207675
0.199989
0.19258
0.185435
0.178522
0.171784
0.16513
0.158432
0.151525
0.144214
0.13629
0.127559
0.11787
0.107167
0.0955236
0.0831757
0.0705225
0.0580852
0.0464123
0.0359609
0.0270032
0.0196023
0.0136662
0.00901825
0.00545219
0.00296526
0.0021816
0.00241048
0.00252725
0.00259135
0.00271546
0.00278345
0.00281493
0.00276761
0.00269623
0.0026558
0.00269169
0.00283761
0.00310878
0.00349029
0.00393473
0.00434655
0.00460472
0.00455606
0.00410324
0.00319795
0.00224736
0.00146486
0.000791768
0.000985917
0.00120166
0.00105805
0.000604637
0.000705829
0.00132051
0.0019489
0.00232909
0.00221818
0.00155798
0.000702878
0.00192593
0.00476309
0.0087511
0.0117056
0.0120933
0.0100413
0.00804262
0.00934421
0.0069743
0.0101601
0.0147338
0.0134611
0.0183918
0.0193842
0.00425802
0.0126961
0.00988187
0.00166776
0.00194329
0.00232159
0.00801444
0.0136894
0.0139746
0.0108082
0.00786552
0.00526772
0.00342669
0.0059518
0.00656502
0.0054754
0.00521663
0.00489988
0.00359114
0.00350762
0.0029993
0.000741319
0.00170933
0.00159686
0.00106964
0.00169269
0.419969
0.405286
0.391108
0.377503
0.364427
0.351817
0.339633
0.32786
0.316485
0.305489
0.294852
0.284552
0.27457
0.264891
0.255502
0.24639
0.237547
0.228968
0.220651
0.212596
0.204808
0.197291
0.190047
0.183077
0.176373
0.169921
0.163685
0.157604
0.151586
0.145505
0.139199
0.132479
0.125142
0.116997
0.107901
0.0978005
0.0867774
0.0750764
0.0631088
0.0514077
0.0405279
0.0309126
0.0227981
0.016204
0.0109979
0.0069833
0.00394889
0.00232412
0.00210461
0.00228374
0.00237587
0.00245275
0.00251881
0.00251882
0.00253277
0.00254562
0.00261266
0.00277773
0.00306699
0.00347433
0.00396091
0.00443537
0.00477761
0.0048241
0.00446267
0.00361967
0.00244968
0.00144427
0.000757483
0.000762037
0.00106588
0.000977504
0.000539417
0.000532246
0.0011566
0.00180643
0.00220446
0.00208785
0.00135377
0.000661705
0.00226508
0.00537425
0.00928415
0.0119206
0.011987
0.00985639
0.00833974
0.0101282
0.00718995
0.0103172
0.0144603
0.0138893