/*--------------------------------*- C++ -*----------------------------------*\
| =========                 |                                                 |
| \\      /  F ield         | OpenFOAM: The Open Source CFD Toolbox           |
|  \\    /   O peration     | Version:  2412                                  |
|   \\  /    A nd           | Website:  www.openfoam.com                      |
|    \\/     M anipulation  |                                                 |
\*---------------------------------------------------------------------------*/
FoamFile
{
    version     2.0;
    format      ascii;
    arch        "LSB;label=32;scalar=64";
    class       surfaceScalarField;
    location    "0.4";
    object      ddtCorrDdt0(phi);
}
// * * * * * * * * * * * * * * * * * * * * * * * * * * * * * * * * * * * * * //

dimensions      [0 3 -2 0 0 0 0];

oriented        oriented;

internalField   nonuniform List<scalar> 
24930
(
-0.00285562
-0.00340796
0.00335375
-0.00136436
-0.00158647
-0.00039655
-0.000421822
5.41316e-05
7.68584e-05
0.0001015
0.000128438
-1.23568e-05
1.69659e-05
-0.00011639
-9.31441e-05
-0.00013147
-0.000113662
-5.51619e-05
-6.70639e-05
5.44297e-05
-1.50056e-07
0.000136925
4.78456e-05
0.00016269
6.18217e-05
0.00013576
4.09416e-05
8.12488e-05
-3.48826e-06
2.89362e-05
-4.90222e-05
-1.0174e-06
-7.44897e-05
-4.62134e-06
-7.36304e-05
9.3065e-06
-5.5426e-05
2.80171e-05
-3.3704e-05
4.22873e-05
-1.82327e-05
4.88456e-05
-1.2713e-05
4.87245e-05
-1.64361e-05
4.43846e-05
-2.59232e-05
3.77028e-05
-3.62636e-05
2.94642e-05
-4.28404e-05
1.99888e-05
-4.29315e-05
1.00314e-05
-3.62567e-05
1.10264e-06
-2.4401e-05
-5.02511e-06
-9.78737e-06
-7.16999e-06
5.22013e-06
-5.27641e-06
1.88412e-05
-3.5243e-07
3.01025e-05
6.09065e-06
3.88347e-05
1.26399e-05
4.54992e-05
1.83362e-05
5.0688e-05
2.26155e-05
5.46136e-05
2.51955e-05
5.68787e-05
2.60109e-05
5.6816e-05
2.54216e-05
5.38841e-05
2.42311e-05
4.81082e-05
2.35579e-05
4.02288e-05
2.43424e-05
3.16887e-05
2.69853e-05
2.41308e-05
3.12199e-05
1.8775e-05
3.62285e-05
1.61198e-05
4.12293e-05
1.56472e-05
4.53924e-05
1.64197e-05
4.86687e-05
1.68535e-05
5.06081e-05
1.63285e-05
5.19854e-05
1.37068e-05
5.21787e-05
9.81196e-06
5.26834e-05
4.25903e-06
5.2193e-05
-2.29837e-07
5.29616e-05
-4.33267e-06
5.25213e-05
-4.92777e-06
5.37244e-05
-4.46448e-06
5.32482e-05
-1.03775e-06
5.43253e-05
2.21835e-07
5.41042e-05
7.52668e-08
5.40444e-05
-4.51652e-06
5.46097e-05
-1.26026e-05
5.09365e-05
-2.10226e-05
5.28766e-05
-3.21419e-05
4.24436e-05
-3.09351e-05
4.76159e-05
-2.88277e-05
2.93064e-05
-2.84221e-06
3.83111e-05
6.89397e-06
1.25616e-05
4.01797e-05
1.92404e-05
3.96438e-05
-7.72582e-06
5.18586e-05
-1.22462e-05
9.98171e-06
-2.28649e-05
2.03446e-06
-4.35867e-05
-2.12569e-05
-2.22047e-05
-3.94852e-05
-6.76124e-05
-5.26914e-05
-3.57923e-05
-8.2617e-05
-0.000106776
-5.57175e-05
-9.6276e-05
-0.00011952
-0.000147841
6.85487e-07
-0.000178424
6.02691e-05
-0.000166913
0.000248807
-0.00024983
0.000154252
-0.00016541
-6.79789e-05
-0.000251114
-9.50689e-05
-0.000162034
-0.000328267
-0.000237369
-0.000235564
-0.00024032
-0.00046498
-0.000217794
-0.000303529
-0.000232275
-9.97453e-06
-0.000186833
0.000234307
-0.000260115
0.000898059
-0.000333257
0.000706176
-0.000192938
0.000154878
-0.000216654
0.000739443
-0.00011849
-0.000418036
-0.000332345
-0.000864341
4.34702e-05
-0.00137893
0.000692703
-0.00166239
0.000926605
-0.000944644
0.000775414
0.0005222
0.000110175
0.00137247
-0.000160672
0.00129444
-0.00194664
0.00277145
-0.00342908
0.00142226
-0.00605056
0.00177682
-0.00508354
-0.00156029
-0.00485415
-0.00281765
-0.00225803
-0.00407068
-0.00227747
-0.000833106
-0.00197425
0.0021429
-0.00327518
0.00552697
-0.00482322
0.00379277
-0.00589641
0.00120459
-0.00823607
-0.000297965
-0.00910123
-0.00274163
-0.0109084
-0.00144125
-0.0098335
-0.00156055
-0.00753243
-0.00219509
-0.00621709
-0.000307654
0.00107397
-0.00442896
-0.00342137
0.00434142
-0.00329611
-0.0023127
-0.00205685
-0.00123741
-0.00119172
-0.000701764
-0.000769371
-0.00051056
-0.000603765
-0.000454343
-0.000512235
-0.000395277
-0.000387049
-0.0002817
-0.000218366
-0.000142253
-4.93482e-05
-2.84103e-05
7.06317e-05
2.29971e-05
0.000119385
6.89803e-06
0.000108069
-5.39044e-05
6.77887e-05
-0.000123214
3.04289e-05
-0.00016845
1.46223e-05
-0.000173781
2.20627e-05
-0.000144028
4.30484e-05
-9.81697e-05
6.55212e-05
-5.75132e-05
8.16585e-05
-3.60825e-05
8.95069e-05
-3.72294e-05
9.08491e-05
-5.54271e-05
8.80462e-05
-8.02565e-05
8.2041e-05
-0.000100597
7.23659e-05
-0.000108273
5.86946e-05
-0.000100454
4.252e-05
-7.98225e-05
2.74531e-05
-5.23558e-05
1.78064e-05
-2.41931e-05
1.64993e-05
5.92279e-07
2.37442e-05
2.05483e-05
3.71716e-05
3.62101e-05
5.31245e-05
4.89382e-05
6.8126e-05
5.99601e-05
7.97917e-05
6.97786e-05
8.68938e-05
7.8116e-05
8.91822e-05
8.39957e-05
8.72484e-05
8.61746e-05
8.27004e-05
8.35351e-05
7.79394e-05
7.58214e-05
7.55754e-05
6.39721e-05
7.73784e-05
5.01785e-05
8.36521e-05
3.70677e-05
9.3223e-05
2.67794e-05
0.000103999
2.03316e-05
0.000114049
1.72966e-05
0.000121763
1.67025e-05
0.000126821
1.6782e-05
0.000128783
1.69494e-05
0.000128875
1.5697e-05
0.000126899
1.38943e-05
0.000125079
1.02734e-05
0.000122213
7.7348e-06
0.000120843
4.76533e-06
0.000117785
5.41906e-06
0.000115929
6.09285e-06
0.000111086
1.00475e-05
0.000107018
1.14668e-05
0.000100243
1.29339e-05
9.29767e-05
1.10457e-05
8.51648e-05
6.46684e-06
7.22974e-05
3.34368e-06
6.41881e-05
-5.2766e-06
4.22435e-05
-8.19641e-07
3.596e-05
-6.96897e-06
3.97648e-06
1.27378e-05
1.11111e-06
7.47274e-06
-3.97557e-05
3.17782e-05
-4.46547e-05
1.88771e-05
-8.75465e-05
2.81037e-05
-0.000103096
2.8982e-06
-0.000128404
-9.41785e-06
-0.000159324
-1.29525e-05
-0.000149118
-3.94884e-05
-0.000207224
-1.8459e-05
-0.000187268
-5.6606e-05
-0.000282503
-2.19833e-05
-0.000293936
-6.45195e-05
-0.000387298
-3.45811e-06
-0.000449574
3.62159e-05
-0.000480774
9.10123e-05
-0.000582518
7.20799e-05
-0.000498101
-9.02996e-05
-0.000602411
-5.39047e-05
-0.000550521
-0.000137224
-0.000715939
-2.40312e-05
-0.000719762
-0.000242133
-0.000684703
-0.00030539
-0.000655343
-0.000209728
-0.000658805
0.000146264
-0.000870728
0.000677549
-0.000916908
0.000485504
-0.000694747
7.58217e-05
-0.000654391
0.000128746
-0.000762904
0.000437672
-0.00106711
-1.19986e-05
0.000229283
-0.00229256
0.00202026
-0.00302238
0.00241916
-0.00101412
0.00161846
0.00117058
0.000126063
0.00199271
-0.00123551
0.00184978
-0.00625013
0.00645984
-0.0125889
0.00913101
-0.0186642
0.00765639
-0.0172603
-0.000767051
-0.0138856
-0.00627604
-0.00810454
-0.00756107
-0.00705027
-0.00283955
-0.00789776
0.0022771
-0.0116063
0.0057302
-0.0154533
0.00533895
-0.0196125
0.00566794
-0.0245676
0.00482653
-0.0294009
0.00735276
-0.0326942
0.00514993
-0.0293388
-0.000976956
-0.0222977
-0.00526847
-0.016142
-0.00602992
0.00119318
-0.00482278
-0.00303157
0.00469353
-0.00429891
-0.00246733
-0.00348573
-0.00191419
-0.00270466
-0.00157782
-0.00211098
-0.0013745
-0.00168423
-0.00117941
-0.00134162
-0.000928071
-0.00101985
-0.000635655
-0.000709851
-0.000367972
-0.000440904
-0.000184746
-0.000246588
-0.000109684
-0.000137658
-0.000127867
-9.64143e-05
-0.000197193
-8.90782e-05
-0.000266877
-8.38916e-05
-0.00029784
-6.36322e-05
-0.000276442
-2.75333e-05
-0.000215337
1.52658e-05
-0.000142604
5.45299e-05
-8.63123e-05
8.45648e-05
-6.27722e-05
0.000104982
-7.28482e-05
0.000118183
-0.000105274
0.00012623
-0.000143032
0.000129151
-0.000169688
0.000125502
-0.000174564
0.000114687
-0.000155954
9.92142e-05
-0.0001208
8.48435e-05
-8.02829e-05
7.82058e-05
-4.39412e-05
8.35213e-05
-1.60127e-05
0.000100675
4.47283e-06
0.000125636
2.11704e-05
0.000152622
3.7467e-05
0.000176395
5.48525e-05
0.000193557
7.27729e-05
0.000202598
8.94932e-05
0.000203597
0.000102678
0.000198023
0.000109928
0.000188846
0.000109151
0.000180027
9.97022e-05
0.000175447
8.30467e-05
0.000177385
6.28911e-05
0.000185754
4.37325e-05
0.000198342
2.92497e-05
0.000211836
2.10831e-05
0.00022334
1.85999e-05
0.000230675
2.01865e-05
0.000233424
2.33967e-05
0.000231297
2.71412e-05
0.000226042
2.93415e-05
0.000217946
3.05667e-05
0.00020989
2.91953e-05
0.00020075
2.85358e-05
0.000193189
2.72379e-05
0.000183381
3.01933e-05
0.000174149
3.32965e-05
0.000160671
4.03296e-05
0.000147071
4.4344e-05
0.000129518
4.9183e-05
0.000110657
4.99077e-05
9.02974e-05
4.90686e-05
6.38531e-05
4.80508e-05
4.16398e-05
4.25349e-05
3.97705e-06
4.61041e-05
-1.74941e-05
3.87509e-05
-6.68101e-05
5.07267e-05
-8.47989e-05
4.00813e-05
-0.000143502
5.36094e-05
-0.000162841
3.55899e-05
-0.0002231
3.94822e-05
-0.000252267
1.57495e-05
-0.000292554
6.49655e-06
-0.000336273
-9.24783e-07
-0.000337706
-1.83271e-05
-0.000411303
-3.97803e-06
-0.000405694
-2.63412e-05
-0.00052748
3.85722e-06
-0.000566046
-1.47871e-05
-0.000700565
4.65583e-05
-0.000799177
6.50297e-05
-0.000868128
0.000109724
-0.000987573
3.08589e-05
-0.000903646
-0.000106417
-0.00103096
-5.40362e-05
-0.00103214
1.18497e-05
-0.00128207
0.000212057
-0.00129007
-0.000170515
-0.00123807
-0.000301248
-0.00117845
-0.000364479
-0.00126062
0.000204799
-0.00160772
0.000821592
-0.00162466
0.000209685
-0.00132333
-0.000179756
-0.00124135
-0.000169739
-0.00160955
0.00110301
-0.00188875
0.000396357
0.000432472
-0.00446648
0.00328412
-0.00576152
0.0036471
-0.00135718
0.00198439
0.00267923
-0.000481147
0.00376183
-0.0032948
0.00443262
-0.0120871
0.0144252
-0.0235964
0.021832
-0.0329115
0.0164047
-0.0302599
-0.00182281
-0.023777
-0.0140283
-0.0148104
-0.0151433
-0.0129083
-0.00587162
-0.0152828
0.00499294
-0.0216266
0.0110404
-0.0281169
0.0106821
-0.0356312
0.013854
-0.0433972
0.0119927
-0.0520127
0.0193277
-0.0555534
0.0104153
-0.0490914
-0.00459499
-0.0358563
-0.0150028
-0.0251241
-0.016101
0.00295268
-0.00484492
-0.00278296
0.00477245
-0.00471755
-0.00254189
-0.00437558
-0.00237216
-0.00391872
-0.00226637
-0.00343819
-0.00214503
-0.00295251
-0.00191702
-0.00246466
-0.00155799
-0.00198393
-0.00113531
-0.00153348
-0.000755587
-0.00114672
-0.0004948
-0.000850465
-0.000372521
-0.000649044
-0.000361911
-0.000521984
-0.000409825
-0.000435845
-0.000457415
-0.000360781
-0.000461047
-0.000281471
-0.00040702
-0.000197769
-0.000312359
-0.000117576
-0.000211729
-4.84023e-05
-0.000138504
7.13328e-06
-0.000110329
5.08657e-05
-0.000125118
8.60365e-05
-0.000166146
0.000114413
-0.000210725
0.000135166
-0.00023819
0.000146008
-0.000236221
0.000146077
-0.000204935
0.000138716
-0.000156198
0.000131632
-0.000106739
0.000133715
-6.8926e-05
0.000150536
-4.5444e-05
0.000181677
-3.06757e-05
0.000221393
-1.62176e-05
0.000261753
3.67857e-06
0.000295862
2.99819e-05
0.000319561
5.98842e-05
0.000331374
8.9172e-05
0.000331983
0.000113439
0.000323911
0.000128597
0.000311534
0.00013118
0.000300287
0.000120055
0.000295122
9.7625e-05
0.000298576
6.99736e-05
0.000309944
4.43952e-05
0.000325863
2.6665e-05
0.000341818
1.90437e-05
0.00035407
2.02562e-05
0.00036002
2.7478e-05
0.000359282
3.70477e-05
0.000351802
4.7011e-05
0.000339899
5.43949e-05
0.000324324
5.94181e-05
0.000308565
6.02043e-05
0.000291471
6.10119e-05
0.000275771
6.10113e-05
0.000256955
6.64414e-05
0.000237835
7.25131e-05
0.000212995
8.36629e-05
0.000186982
9.10729e-05
0.00015564
0.00010021
0.000122043
0.000103719
8.59147e-05
0.000107236
4.25271e-05
0.000108056
2.86889e-06
0.000106727
-5.39939e-05
0.000109678
-9.39248e-05
0.000103911
-0.000163974
0.000109466
-0.000200165
9.61924e-05
-0.000279966
9.98983e-05
-0.000316744
7.7287e-05
-0.000397472
7.57417e-05
-0.000443352
4.742e-05
-0.000501615
4.24035e-05
-0.000561629
2.22858e-05
-0.000578043
1.81819e-05
-0.000671666
1.75681e-05
-0.000684928
2.10475e-05
-0.000838989
5.1339e-05
-0.000910272
6.67626e-05
-0.00109071
0.000150707
-0.00123
0.000145737
-0.00133805
0.000202487
-0.00147767
1.15377e-05
-0.00139834
-0.000112355
-0.00155894
-3.97634e-05
-0.00162352
0.000215806
-0.00195899
0.000523942
-0.00197006
-0.000113437
-0.00190327
-0.00028909
-0.00183133
-0.000490667
-0.00201572
0.000424463
-0.00249784
0.00117904
-0.00248417
-8.47423e-05
-0.002103
-0.000526085
-0.00201852
-0.000466095
-0.00263425
0.00192826
-0.00282219
0.000599064
0.00056927
-0.00779456
0.00437779
-0.00955902
0.00446677
-0.00147723
0.00172765
0.00525119
-0.00191158
0.00669202
-0.0065618
0.008944
-0.0196672
0.0267014
-0.0365653
0.0399858
-0.0488352
0.0279353
-0.0449941
-0.00404074
-0.0345651
-0.0259497
-0.0224259
-0.0258214
-0.0199533
-0.00946182
-0.0241749
0.0098219
-0.033397
0.0193858
-0.0428274
0.0189783
-0.0539235
0.0257639
-0.064551
0.0219977
-0.0764989
0.0348883
-0.079104
0.0148204
-0.0685482
-0.0122045
-0.0478345
-0.0320654
-0.0330474
-0.0302794
0.00767475
-0.00487514
-0.00280319
0.00476994
-0.00492847
-0.00270076
-0.00486552
-0.00268526
-0.00468781
-0.00270023
-0.0044137
-0.00265147
-0.004042
-0.00245314
-0.00358899
-0.00209105
-0.00308946
-0.00164154
-0.00258828
-0.00122186
-0.00212946
-0.000917919
-0.00174514
-0.000752571
-0.00144498
-0.000699783
-0.00121519
-0.000707472
-0.00102909
-0.000717169
-0.000862468
-0.0006842
-0.000703691
-0.000593901
-0.000553964
-0.000464369
-0.00042014
-0.000333672
-0.000306733
-0.000238969
-0.000212643
-0.000199282
-0.000133173
-0.00021032
-6.39521e-05
-0.000250884
-3.49265e-06
-0.000293812
4.65603e-05
-0.000315379
8.31227e-05
-0.000302288
0.000104832
-0.000256545
0.000115259
-0.000194908
0.000123504
-0.000139788
0.000140703
-0.000106167
0.000174318
-9.3921e-05
0.000224245
-9.06471e-05
0.000283291
-8.12842e-05
0.000341266
-5.7132e-05
0.00038945
-1.85603e-05
0.000422943
2.79315e-05
0.000440513
7.44419e-05
0.00044368
0.000113761
0.000436135
0.00013967
0.000423631
0.000146992
0.000412971
0.000134041
0.00041005
0.000104613
0.000417538
6.8121e-05
0.000433997
3.56865e-05
0.000454842
1.57791e-05
0.000474352
1.12456e-05
0.000488022
1.96322e-05
0.000492937
3.62723e-05
0.000488855
5.56903e-05
0.000476013
7.47457e-05
0.000457322
8.92304e-05
0.000433959
9.90787e-05
0.000409963
0.000102204
0.000384063
0.000104496
0.000359018
0.000105868
0.000329597
0.000114555
0.000298663
0.000124661
0.00026023
0.000141583
0.000219345
0.000153713
0.000171527
0.00016867
0.000120318
0.000175711
6.53872e-05
0.000184654
1.86482e-06
0.00018764
-5.84651e-05
0.000191688
-0.000137863
0.000194783
-0.000199437
0.000192779
-0.000293502
0.000193809
-0.00035091
0.000180127
-0.000455034
0.000176093
-0.000512206
0.000149154
-0.00061662
0.00014375
-0.000682329
0.000105995
-0.000761929
0.000107313
-0.000841962
6.77854e-05
-0.000877322
8.16285e-05
-0.000995996
6.03477e-05
-0.00103321
9.60581e-05
-0.00122584
0.000129748
-0.00133532
0.000183562
-0.00156688
0.000306778
-0.00175068
0.00027331
-0.00189999
0.000361036
-0.00206333
1.85948e-05
-0.00199446
-9.37523e-05
-0.00220051
1.17701e-05
-0.00233709
0.000487871
-0.00276032
0.000907265
-0.00277446
-9.04649e-05
-0.00270063
-0.000308369
-0.00263896
-0.000613885
-0.00294575
0.00079329
-0.00356769
0.00174856
-0.00352156
-0.000353934
-0.00307625
-0.000870896
-0.00303472
-0.000669414
-0.00390642
0.00303338
-0.00393289
0.000541803
0.000564637
-0.0123466
0.00514665
-0.0142084
0.00469369
-0.00109557
0.000654518
0.00914527
-0.00441055
0.0110595
-0.0113447
0.0158518
-0.0292265
0.0442268
-0.0515753
0.0639364
-0.066491
0.0421434
-0.0606782
-0.00828095
-0.04626
-0.0421894
-0.0310249
-0.0397219
-0.0282739
-0.013483
-0.0346324
0.0169622
-0.0469414
0.0310912
-0.0595684
0.0305817
-0.0743911
0.0415309
-0.0877684
0.0346255
-0.102378
0.0531386
-0.102736
0.0168734
-0.0872608
-0.0247534
-0.0579427
-0.0576625
-0.0398533
-0.0477914
0.0172609
-0.00499187
-0.00288693
0.00478133
-0.0051226
-0.00285118
-0.00517298
-0.0028713
-0.00513044
-0.00290861
-0.00500086
-0.0028835
-0.0047749
-0.00272514
-0.00445843
-0.00241877
-0.00407128
-0.00202508
-0.003645
-0.00164427
-0.0032155
-0.00135489
-0.00281393
-0.0011801
-0.0024578
-0.00109917
-0.0021468
-0.00106925
-0.00186844
-0.00104045
-0.00160961
-0.000972167
-0.00136557
-0.000849499
-0.00114069
-0.00068896
-0.000942224
-0.000528666
-0.000772839
-0.000408085
-0.000628232
-0.000348559
-0.000500741
-0.000345534
-0.000384717
-0.000375017
-0.00027904
-0.000406779
-0.000186295
-0.000415336
-0.000110416
-0.000387003
-5.36492e-05
-0.000325137
-1.31791e-05
-0.000250431
2.03709e-05
-0.000190759
6.0089e-05
-0.000164233
0.000116225
-0.000167879
0.000190375
-0.000180952
0.000274727
-0.00017939
0.000356741
-0.000150134
0.000425322
-9.53337e-05
0.000474458
-2.68188e-05
0.000503169
4.22553e-05
0.000513984
0.000101035
0.000511815
0.000140872
0.000503697
0.000154707
0.000497687
0.000140252
0.00050062
0.000103024
0.000515368
5.66287e-05
0.000539808
1.70453e-05
0.000568104
-3.90412e-06
0.000593273
-2.78233e-06
0.000610026
1.62222e-05
0.000615189
4.59727e-05
0.000608747
7.86073e-05
0.000591277
0.000109595
0.000566289
0.000133216
0.000535333
0.000149289
0.000502962
0.000155487
0.000467728
0.000160029
0.000432413
0.000163598
0.000391046
0.000177108
0.000346589
0.000192919
0.000292495
0.000217828
0.000234383
0.000236436
0.000167452
0.000259208
9.57669e-05
0.00027108
1.89602e-05
0.000286936
-6.79353e-05
0.000293045
-0.000152238
0.000303539
-0.000257569
0.00030774
-0.000344066
0.000310105
-0.000465531
0.000307773
-0.000547308
0.000293404
-0.000679143
0.000282965
-0.000759848
0.000250142
-0.000891427
0.000242355
-0.00098036
0.000191568
-0.00108509
0.000200949
-0.00118935
0.000138182
-0.00124822
0.000173223
-0.00139756
0.000130533
-0.00146425
0.000203717
-0.00170212
0.000247087
-0.00185513
0.000343667
-0.00214297
0.000516446
-0.00237491
0.000447091
-0.0025681
0.00057045
-0.00276017
4.79409e-05
-0.0027091
-4.73078e-05
-0.00297361
0.000116012
-0.00318903
0.000848204
-0.00370232
0.00137815
-0.00372259
-6.97624e-05
-0.00365418
-0.000326658
-0.00362948
-0.000702698
-0.00407683
0.00132049
-0.00484399
0.00249242
-0.00477117
-0.000633789
-0.00428846
-0.00121944
-0.00434081
-0.000765239
-0.00547363
0.00443409
-0.00530517
0.000258126
0.000243881
-0.0180124
0.00539484
-0.0194652
0.00411533
0.000105743
-0.00145844
0.0145977
-0.00824221
0.0171403
-0.0178873
0.0255348
-0.0409601
0.0664681
-0.0686925
0.0934027
-0.0842331
0.0569013
-0.0773968
-0.013456
-0.0588769
-0.0627596
-0.0406485
-0.0566101
-0.0379022
-0.0176152
-0.0466228
0.02655
-0.0621777
0.0460778
-0.0782058
0.0455667
-0.0967978
0.0611678
-0.112663
0.0496751
-0.129125
0.0734451
-0.125918
0.0153928
-0.104932
-0.0427217
-0.0661099
-0.0926088
-0.0455777
-0.0677555
0.0336608
-0.00518014
-0.00289509
0.0048753
-0.00535168
-0.00290131
-0.00543025
-0.00292402
-0.00541181
-0.00294467
-0.00533001
-0.00291447
-0.00519565
-0.00278854
-0.00501291
-0.00255531
-0.00478112
-0.00225337
-0.00450254
-0.00195604
-0.00418802
-0.00172276
-0.00385355
-0.00157217
-0.00351492
-0.00148793
-0.00318155
-0.00143825
-0.00285578
-0.0013855
-0.00253788
-0.00129664
-0.00223159
-0.00115744
-0.00194535
-0.000980365
-0.00168805
-0.000799511
-0.00146267
-0.00065429
-0.00126384
-0.000569498
-0.00108207
-0.000543521
-0.000910795
-0.00055233
-0.000749608
-0.000564333
-0.00060245
-0.000553604
-0.000474343
-0.000506764
-0.000368755
-0.000427682
-0.000284746
-0.000339096
-0.000214472
-0.000273369
-0.000144098
-0.000252899
-5.99538e-05
-0.000273751
4.33445e-05
-0.000306804
0.000159191
-0.000316414
0.000273038
-0.000282294
0.000370573
-0.000207643
0.000443728
-0.000111183
0.000491386
-1.34408e-05
0.000517109
6.98668e-05
0.000527034
0.000127423
0.000529297
0.000150308
0.000533066
0.000135533
0.000546213
9.0413e-05
0.000572124
3.33811e-05
0.00060826
-1.36487e-05
0.000647588
-3.46154e-05
0.00068172
-2.52797e-05
0.000704441
7.90579e-06
0.000712271
5.46284e-05
0.000705476
0.000103991
0.000685012
0.000149912
0.00065498
0.000184929
0.000617251
0.000208993
0.000576873
0.000219437
0.000532204
0.000227516
0.000486083
0.000234607
0.000431777
0.000255072
0.000372384
0.000278759
0.000300775
0.000314413
0.00022322
0.000341696
0.000134592
0.00037477
3.95615e-05
0.000393201
-6.22605e-05
0.000417873
-0.000175864
0.000428445
-0.00028758
0.000446584
-0.000422393
0.00045303
-0.000537286
0.000459947
-0.000689746
0.00045534
-0.000799293
0.000439182
-0.000962511
0.000423703
-0.00107018
0.000382707
-0.0012328
0.000374475
-0.00134874
0.000307163
-0.00148298
0.000327151
-0.00161621
0.000238231
-0.00170387
0.000298465
-0.00189015
0.000235429
-0.00199232
0.000351311
-0.00228246
0.000412126
-0.00248414
0.000554207
-0.00283353
0.000786144
-0.00311693
0.000670868
-0.00335738
0.000832946
-0.00358454
0.000105489
-0.00355995
3.51295e-05
-0.00389629
0.000286354
-0.00419499
0.00130312
-0.00480202
0.00194118
-0.00483482
-4.25574e-05
-0.00479006
-0.000325328
-0.0048319
-0.000731073
-0.005435
0.00201352
-0.00635765
0.00340556
-0.00627176
-0.000924127
-0.00579327
-0.00153861
-0.0059942
-0.000703013
-0.00738229
0.00612434
-0.00698909
-0.000274377
-0.000517719
-0.0246431
0.00494289
-0.0250574
0.00248502
0.00249001
-0.00486876
0.0218572
-0.0137035
0.0252678
-0.026618
0.0385598
-0.0550576
0.094722
-0.0880294
0.128371
-0.10537
0.0734336
-0.0950864
-0.0220462
-0.0724007
-0.0877303
-0.0513096
-0.0763467
-0.0488109
-0.0216182
-0.0600328
0.0387297
-0.0789183
0.0644356
-0.0984849
0.0640736
-0.120777
0.0846155
-0.13875
0.0667668
-0.156219
0.09498
-0.148192
0.00912357
-0.121426
-0.066369
-0.0724937
-0.137505
-0.0502914
-0.0893979
0.0587451
-0.00541487
-0.00282138
0.00507039
-0.00560902
-0.00284214
-0.00568398
-0.00286364
-0.00564177
-0.00286996
-0.00554771
-0.00283594
-0.0054439
-0.00274068
-0.00534586
-0.00257883
-0.00524205
-0.00237128
-0.00511071
-0.00216443
-0.00493491
-0.00199868
-0.00471029
-0.00188511
-0.00444313
-0.00181181
-0.00414554
-0.00175752
-0.0038301
-0.00169729
-0.00350779
-0.00160694
-0.00318853
-0.00147345
-0.00288203
-0.00130311
-0.00259676
-0.00112123
-0.00233631
-0.000962638
-0.00209645
-0.000854915
-0.00186805
-0.000802677
-0.00164468
-0.00078571
-0.00142716
-0.000773218
-0.00122144
-0.000740001
-0.00103413
-0.000673763
-0.0008701
-0.000578294
-0.00073105
-0.000475949
-0.000612831
-0.000401292
-0.000503541
-0.000381839
-0.000386905
-0.000416594
-0.000251684
-0.000470963
-0.000100143
-0.000496153
5.27533e-05
-0.00046014
0.000188829
-0.000364148
0.000296372
-0.000234409
0.000373034
-0.000101432
0.000423071
1.22246e-05
0.00045374
9.21384e-05
0.000474012
0.000127725
0.000493896
0.000115187
0.000522417
6.32954e-05
0.000564012
-4.50011e-06
0.000616323
-5.93363e-05
0.00067136
-7.96594e-05
0.000719154
-5.97716e-05
0.000752235
-8.74988e-06
0.000766612
5.91132e-05
0.000762815
0.000129062
0.000742202
0.000193281
0.000709455
0.00024238
0.000666695
0.000276747
0.000619467
0.000293186
0.000565972
0.000306684
0.000509183
0.000319132
0.000441584
0.00034924
0.000366415
0.000383485
0.000275907
0.000433239
0.000177056
0.000471891
6.4402e-05
0.000518292
-5.66683e-05
0.000545444
-0.000186567
0.000581277
-0.000330189
0.000598019
-0.000472811
0.000625196
-0.000640739
0.000635272
-0.000787661
0.00064675
-0.000974914
0.000641133
-0.00111588
0.000621585
-0.00131446
0.000602725
-0.00145284
0.000550675
-0.00165081
0.000544513
-0.00179797
0.000456979
-0.00196672
0.000490953
-0.00213431
0.000373389
-0.00225677
0.000463442
-0.00248688
0.000382238
-0.00263102
0.000545571
-0.00298081
0.000632659
-0.0032361
0.000820503
-0.00365243
0.00112139
-0.00399047
0.000947426
-0.00428258
0.00115189
-0.0045527
0.000198098
-0.00456455
0.000163162
-0.00498584
0.000535716
-0.00536991
0.00185546
-0.00607657
0.00260332
-0.00613274
4.15914e-06
-0.00613575
-0.000277226
-0.00627554
-0.000666567
-0.00704721
0.00288379
-0.00814241
0.00449922
-0.00806856
-0.00120819
-0.0076518
-0.00177664
-0.00805799
-0.000431786
-0.00969616
0.00809522
-0.00910999
-0.00101826
-0.00192494
-0.0320212
0.00351908
-0.0306482
-0.000457909
0.00640489
-0.00989579
0.0312295
-0.0211217
0.0357819
-0.037617
0.0552356
-0.0718211
0.126859
-0.107893
0.166557
-0.127213
0.0919156
-0.113643
-0.0338371
-0.0867975
-0.117081
-0.0629697
-0.098775
-0.0608886
-0.02531
-0.0746314
0.0535223
-0.0968345
0.0861319
-0.119992
0.0861415
-0.145816
0.111711
-0.165462
0.0854707
-0.183212
0.117043
-0.169264
-0.00301625
-0.136821
-0.0955686
-0.0774915
-0.192611
-0.0540268
-0.112297
0.0940559
-0.00567494
-0.00272478
0.00533915
-0.00588511
-0.00273688
-0.00594436
-0.00276082
-0.00586923
-0.00276187
-0.00574621
-0.00273298
-0.0056413
-0.00266954
-0.00558386
-0.00257028
-0.00556126
-0.00244315
-0.00553753
-0.00231278
-0.00547574
-0.00220365
-0.00535374
-0.00212099
-0.00516789
-0.00205756
-0.00493011
-0.00200236
-0.00465995
-0.00194233
-0.00437646
-0.00186224
-0.004093
-0.00175105
-0.00381657
-0.00160868
-0.00355018
-0.00144845
-0.0032943
-0.0012951
-0.00304535
-0.0011753
-0.00279592
-0.00110109
-0.00254068
-0.0010599
-0.00228183
-0.00102432
-0.00202753
-0.000970729
-0.00178645
-0.000888396
-0.00156495
-0.000780936
-0.00136717
-0.000668272
-0.00119405
-0.000583592
-0.00103934
-0.000558311
-0.000887627
-0.000598782
-0.000721528
-0.000671687
-0.000535089
-0.000716993
-0.000339975
-0.000686063
-0.00015754
-0.000571921
-4.95126e-06
-0.000406373
0.000112125
-0.000232269
0.000197564
-8.20083e-05
0.000259356
2.57424e-05
0.000306911
7.89509e-05
0.000350584
7.29685e-05
0.000400474
1.72186e-05
0.000462714
-6.04108e-05
0.000536122
-0.00012345
0.000612385
-0.000143222
0.000679882
-0.000111168
0.000729388
-3.8887e-05
0.000755938
5.45264e-05
0.000760161
0.000149352
0.0007438
0.000235733
0.000712087
0.000302155
0.000667316
0.000349834
0.000615537
0.000374728
0.000554871
0.000396192
0.000488568
0.000416338
0.000408315
0.000459324
0.000317468
0.000507342
0.0002075
0.00057523
8.61966e-05
0.000628522
-5.22588e-05
0.000691915
-0.00020162
0.000730443
-0.000362342
0.000780304
-0.000539071
0.000805337
-0.000715983
0.000843231
-0.000920628
0.000858657
-0.00110329
0.000874688
-0.00132929
0.000869691
-0.00150557
0.000844819
-0.00174377
0.000824762
-0.00191694
0.000758255
-0.00215502
0.000757508
-0.00233807
0.000645747
-0.00254702
0.000698184
-0.00275493
0.000549762
-0.00291903
0.000675049
-0.00320049
0.000578764
-0.00339358
0.000793565
-0.00381074
0.000916763
-0.00412443
0.00114747
-0.00461339
0.0015281
-0.00500917
0.00127969
-0.00535865
0.00153269
-0.00568097
0.000334696
-0.00574037
0.000347964
-0.00625907
0.00087675
-0.00672842
0.00250541
-0.00754384
0.00337402
-0.00763911
8.67364e-05
-0.00771994
-0.000150771
-0.00798978
-0.000476273
-0.00894153
0.00394233
-0.0102362
0.00579784
-0.010213
-0.00145072
-0.00993282
-0.00186005
-0.0106023
0.000104805
-0.0124954
0.010349
-0.011819
-0.00187041
-0.00421428
-0.0398461
0.000831879
-0.0358472
-0.00498075
0.0121729
-0.0167266
0.0429402
-0.0306466
0.0489782
-0.051174
0.0759772
-0.0900594
0.166915
-0.131438
0.210273
-0.150095
0.109635
-0.132948
-0.0491208
-0.101993
-0.150756
-0.0755278
-0.123774
-0.0739269
-0.028621
-0.0900543
0.0707974
-0.11543
0.111017
-0.142121
0.111709
-0.17125
0.142228
-0.192171
0.105385
-0.209762
0.139207
-0.189029
-0.0218881
-0.151383
-0.129834
-0.0816726
-0.25789
-0.0566525
-0.136743
0.140524
-0.00595535
-0.00266379
0.00562189
-0.00619305
-0.00267371
-0.00622272
-0.00269503
-0.00611747
-0.00268923
-0.00596993
-0.00266637
-0.00585682
-0.00263065
-0.00581588
-0.00258057
-0.00583718
-0.00251378
-0.00587824
-0.0024386
-0.00589056
-0.00236694
-0.0058395
-0.00230157
-0.00571478
-0.00223953
-0.00552844
-0.00217978
-0.00530595
-0.00211962
-0.00507363
-0.00205185
-0.00484825
-0.00196811
-0.00463347
-0.00186352
-0.0044239
-0.00173984
-0.00421225
-0.00160857
-0.0039922
-0.00149052
-0.00375736
-0.00140328
-0.00350352
-0.0013442
-0.00323355
-0.00129191
-0.00295679
-0.00122513
-0.00268353
-0.00113449
-0.00242129
-0.00102335
-0.00217548
-0.000908386
-0.00195123
-0.000817839
-0.00175054
-0.000782694
-0.00156463
-0.00081821
-0.00137355
-0.000901419
-0.00116074
-0.000968854
-0.000928863
-0.000953434
-0.000698898
-0.000831326
-0.000494159
-0.000633579
-0.000326431
-0.000415623
-0.000194461
-0.000223317
-9.05331e-05
-8.19708e-05
-5.41657e-06
-5.27479e-06
7.0796e-05
1.37129e-06
0.000148724
-5.30724e-05
0.000236612
-0.000137879
0.000335757
-0.000209232
0.000438797
-0.00022963
0.000532811
-0.000185285
0.000606267
-8.92728e-05
0.00065244
3.39644e-05
0.000671595
0.000158317
0.000665716
0.000271271
0.000640547
0.000358893
0.000598434
0.000423701
0.000545919
0.000460353
0.000481144
0.000493112
0.000407861
0.00052383
0.00031698
0.000583457
0.00021193
0.000648993
8.32177e-05
0.000739817
-6.05558e-05
0.000811726
-0.000225617
0.000896575
-0.000404688
0.000949747
-0.000598317
0.00101718
-0.000810709
0.00105316
-0.00102494
0.0011039
-0.00126966
0.00112685
-0.00149171
0.00114758
-0.00176042
0.00114538
-0.00197608
0.00111306
-0.00225841
0.00109469
-0.00247076
0.00100986
-0.00275417
0.00101893
-0.00297823
0.000878598
-0.00323373
0.000955348
-0.00348851
0.000774026
-0.00370185
0.000940924
-0.00404276
0.000833394
-0.00429234
0.00110275
-0.00478493
0.00127282
-0.00516185
0.00153977
-0.00572956
0.00201249
-0.00618624
0.00167054
-0.00660021
0.00198222
-0.0069852
0.000525629
-0.00710427
0.000601749
-0.00773189
0.00132128
-0.0082847
0.00325101
-0.00922189
0.00426642
-0.00937712
0.000226392
-0.00957147
9.1142e-05
-0.0100034
-0.000127106
-0.011147
0.00520092
-0.0126804
0.00733951
-0.0127621
-0.001599
-0.0127114
-0.00169556
-0.0137045
0.000966643
-0.0158783
0.0129096
-0.0152946
-0.00264737
-0.00764955
-0.0477309
-0.0034182
-0.0402271
-0.0114174
0.0201521
-0.0257633
0.0572841
-0.043268
0.0657546
-0.0681052
0.10109
-0.112017
0.209241
-0.156142
0.256885
-0.173885
0.126367
-0.152856
-0.068205
-0.117862
-0.188676
-0.0888028
-0.15128
-0.0876057
-0.0316207
-0.105784
0.0902243
-0.13401
0.138765
-0.164036
0.140568
-0.196233
0.175933
-0.21818
0.126255
-0.235647
0.161514
-0.207567
-0.0480489
-0.165493
-0.168379
-0.0856487
-0.333075
-0.0577345
-0.164073
0.198201
-0.00617152
-0.00267572
0.00581255
-0.0064543
-0.00268686
-0.00646853
-0.00267804
-0.00635971
-0.00266237
-0.00621093
-0.00264613
-0.00610124
-0.00263362
-0.00607191
-0.00261976
-0.0061172
-0.00259451
-0.00619368
-0.00255479
-0.00624746
-0.00250375
-0.00623748
-0.00244365
-0.00614922
-0.0023764
-0.00599542
-0.00230886
-0.00580631
-0.00224667
-0.00561456
-0.00218894
-0.00544138
-0.00212974
-0.00528988
-0.00206132
-0.00514819
-0.00197691
-0.00500008
-0.00187574
-0.00483359
-0.00176947
-0.00464152
-0.00167752
-0.00442036
-0.00160709
-0.00417279
-0.00154487
-0.00390753
-0.00147313
-0.00363467