/*--------------------------------*- C++ -*----------------------------------*\
| =========                 |                                                 |
| \\      /  F ield         | OpenFOAM: The Open Source CFD Toolbox           |
|  \\    /   O peration     | Version:  2412                                  |
|   \\  /    A nd           | Website:  www.openfoam.com                      |
|    \\/     M anipulation  |                                                 |
\*---------------------------------------------------------------------------*/
FoamFile
{
    version     2.0;
    format      ascii;
    arch        "LSB;label=32;scalar=64";
    class       volVectorField;
    location    "0.35";
    object      ddt0(U);
}
// * * * * * * * * * * * * * * * * * * * * * * * * * * * * * * * * * * * * * //

dimensions      [0 1 -2 0 0 0 0];

internalField   nonuniform List<vector> 
12600
(
(-949.486 0 -849.083)
(-1315.36 -2.42277e-16 -245.367)
(-682.441 -2.81936e-16 -76.2104)
(-442.28 0 -47.2928)
(-326.768 -1.40104e-17 -33.2996)
(-249.065 0 -19.2986)
(-196.859 5.37317e-16 -9.42428)
(-164.28 0 -6.6575)
(-142.982 0 -4.56904)
(-137.238 0 -2.5123)
(-117.769 0 19.6422)
(-103.597 1.16584e-15 16.8196)
(-100.314 1.14068e-15 11.5438)
(-99.8364 0 5.99393)
(-98.8806 -2.08514e-15 1.49706)
(-91.9291 0 -0.142378)
(-83.8979 -1.67651e-18 -1.75964)
(-77.3818 0 -2.07693)
(-66.5063 -7.94481e-16 -1.16206)
(-57.7507 0 0.665781)
(-54.341 0 0.695585)
(-50.2062 0 1.77297)
(-44.5372 -2.71293e-15 5.74898)
(-47.7373 2.65008e-15 9.44519)
(-36.4295 -9.71521e-18 14.0754)
(-31.5325 -1.25338e-15 15.4102)
(-37.5581 0 16.325)
(-10.8997 0 28.2473)
(15.4 0 24.6343)
(-22.5448 2.50322e-15 -14.1777)
(-36.6997 4.34805e-15 -0.310113)
(-17.5166 0 8.7301)
(-18.6772 0 4.26959)
(-21.933 1.75041e-15 0.250384)
(-23.1416 1.67579e-15 -2.09067)
(-26.332 0 -3.95111)
(-22.3506 0 -2.40471)
(-16.6417 2.87627e-15 -0.333335)
(-14.7815 0 0.696389)
(-7.68312 1.32148e-17 3.27846)
(-3.69324 2.74718e-15 4.82604)
(-3.65182 2.60321e-15 4.75746)
(0.00436076 0 5.60903)
(-4.86701 2.63471e-15 3.54069)
(-3.82792 2.61405e-15 3.32216)
(-7.50474 -5.08539e-15 1.29926)
(-10.5051 4.77708e-15 0.0404806)
(-8.76879 0 0.501135)
(-9.63118 -4.25132e-15 -0.195515)
(-10.1587 3.98209e-15 -0.269025)
(-5.80355 0 1.86945)
(-5.82932 2.66608e-18 1.41177)
(-5.77583 -3.26482e-15 0.664989)
(-4.94023 0 -0.448302)
(-6.43277 5.81134e-15 -1.05544)
(-6.25549 0 -0.773667)
(-6.99491 0 -0.35693)
(-7.06152 1.6176e-19 0.0640271)
(-7.55493 -1.38592e-18 -0.3657)
(-6.72208 -3.60233e-15 -0.750039)
(-5.87583 3.29079e-15 -0.832952)
(-7.90482 -5.88035e-15 -2.09089)
(-3.60352 0 1.77495)
(-5.27129 -4.85815e-15 -1.56159)
(-5.75908 -3.84589e-15 -3.57832)
(-4.54642 6.1696e-15 -3.69603)
(-3.90262 -2.20299e-15 -3.83367)
(-2.17273 0 -2.11227)
(-8.07381 0 -1.32477)
(-14.7413 0 2.44507)
(-29.4972 0 12.7825)
(-53.4855 0 26.8865)
(4.65022 -2.79948e-15 -13.6391)
(53.7549 4.07625e-15 -34.5671)
(5.6112 0 -8.1429)
(-15.2551 0 4.58779)
(-8.12644 6.48426e-15 1.49314)
(-16.998 5.43919e-18 5.66689)
(-15.4377 1.44227e-14 -1.17469)
(7.43134 0 -11.8221)
(35.1843 0 -25.209)
(50.6106 0 -32.2531)
(38.1936 6.35612e-18 -24.406)
(11.2384 0 -10.6399)
(-19.8244 0 2.76081)
(-44.0281 2.04199e-14 17.8988)
(-50.4171 2.34431e-17 23.926)
(-39.2665 0 17.8869)
(-26.71 0 11.7125)
(-17.5779 -4.34817e-14 6.77456)
(-7.90203 -4.29604e-14 2.03786)
(-5.13618 -4.29559e-14 -0.0844962)
(-1.36732 -4.28386e-14 -1.88121)
(-3.70669 1.13079e-17 -0.313911)
(-7.80677 3.10382e-18 2.49008)
(-6.29068 3.95587e-14 1.31892)
(2.11714 0 -4.87983)
(13.6656 0 -9.49804)
(11.1726 0 -7.16142)
(-2.05126 1.4362e-13 -1.68862)
(-6.79978 -6.87351e-14 2.93665)
(-5.56978 6.53575e-14 2.41997)
(-2.95244 6.22962e-14 1.41863)
(-1.64748 0 0.741182)
(-0.981771 0 0.191634)
(-0.360058 0 -0.4365)
(0.0414877 1.00269e-13 -0.719138)
(0.372509 0 -1.17096)
(0.0618457 -9.24714e-14 -1.3343)
(-0.482109 0 -1.71486)
(-2.07418 0 -1.60114)
(-2.61788 8.10498e-14 -0.396188)
(-3.25473 0 0.745107)
(-3.64905 0 1.28696)
(-3.13803 0 1.37566)
(-2.91253 -1.31611e-13 1.35716)
(-2.01566 0 0.952311)
(-1.35511 1.16385e-13 0.800005)
(-0.836755 0 0.454643)
(-0.835545 1.82567e-19 0.45475)
(-925.829 6.55434e-17 -1460.06)
(-1000.32 1.74527e-16 -517.226)
(-695.488 -2.35647e-17 -202.601)
(-507.976 0 -118.495)
(-375.723 4.56101e-16 -79.769)
(-288.006 -5.37075e-16 -57.8389)
(-229.595 -5.60477e-16 -36.3753)
(-194.386 6.14244e-16 -29.2559)
(-168.041 0 -23.0838)
(-150.307 0 -19.2593)
(-129.8 0 6.2182)
(-125.959 0 4.48646)
(-122.928 0 -1.53389)
(-121.368 0 -7.83265)
(-117.34 5.13717e-18 -11.8514)
(-107.863 0 -12.9419)
(-97.4437 -9.41682e-16 -13.0437)
(-88.0591 0 -11.6944)
(-75.5729 1.65624e-15 -10.4266)
(-66.1263 -1.59055e-15 -7.68045)
(-61.7115 0 -6.19173)
(-55.64 -1.48418e-15 -4.59345)
(-47.1825 1.41656e-15 2.3339)
(-47.4805 -1.38341e-15 10.7458)
(-28.2989 1.31874e-15 29.9668)
(-22.1403 0 34.2743)
(-22.2323 -1.2647e-15 40.7355)
(11.8356 0 67.2569)
(19.1614 0 50.099)
(-41.6901 0 -36.6424)
(-33.7856 -2.23375e-15 -2.53863)
(-16.5276 0 10.9829)
(-21.5607 0 3.95399)
(-25.4191 0 -2.31727)
(-26.76 0 -6.18092)
(-28.7389 0 -7.56157)
(-23.2845 0 -4.90517)
(-17.1589 -2.95933e-15 -2.22458)
(-14.3939 0 0.175717)
(-7.00322 -5.51554e-15 2.99668)
(-3.25799 -5.65399e-15 4.8959)
(-3.25688 -2.69846e-15 5.05769)
(0.0409134 0 5.76688)
(-5.086 0 3.72415)
(-4.42996 -5.35063e-15 2.8644)
(-8.37961 5.19251e-15 0.587464)
(-11.0657 -4.86486e-15 -0.747876)
(-9.32007 0 -0.708672)
(-10.1828 4.31561e-15 -1.63646)
(-10.1767 0 -1.75129)
(-5.21733 0 1.25071)
(-5.54244 3.59716e-15 0.620559)
(-5.61626 0 -0.386638)
(-4.76653 0 -1.43129)
(-6.23959 -5.87151e-15 -1.71403)
(-6.26697 0 -0.971529)
(-7.51534 0 -0.0363177)
(-8.43097 4.11145e-20 0.518284)
(-9.32236 -4.13128e-15 0.18906)
(-8.47956 5.97175e-18 -0.494917)
(-7.14899 0 -0.849327)
(-8.25192 5.87878e-15 -2.85226)
(-1.05017 5.56271e-15 3.84137)
(-3.70107 0 -4.09633)
(-1.17026 7.64156e-15 -7.50217)
(3.56202 -1.23191e-17 -9.02744)
(6.43454 0 -10.0638)
(6.50347 -1.34195e-15 -6.92771)
(-9.97372 0 -0.449521)
(-29.7102 0 12.0281)
(-73.2946 0 40.2875)
(-154.827 0 83.51)
(12.2776 5.79842e-15 -29.8576)
(166.423 -4.06023e-15 -101.272)
(42.2966 0 -25.3123)
(-31.367 0 14.252)
(-17.0526 6.3584e-15 6.59599)
(-36.3778 8.84067e-18 16.7564)
(-27.693 1.66856e-16 -1.02795)
(51.5812 0 -39.7511)
(133.065 0 -83.9003)
(167.069 0 -100.631)
(118.322 8.8087e-18 -70.5037)
(27.4378 -1.85343e-14 -20.0355)
(-61.5898 1.8697e-14 23.6069)
(-122.865 -1.97302e-14 64.1963)
(-139.955 3.02982e-17 75.8896)
(-106.697 -2.04919e-14 56.0856)
(-71.3882 0 36.8022)
(-44.9638 4.17935e-14 21.8288)
(-16.6454 0 6.58442)
(-6.65091 4.11869e-14 0.378654)
(2.47835 0 -4.38203)
(-5.23785 -7.89516e-14 0.617871)
(-17.2567 -3.98512e-14 8.06975)
(-10.8774 0 3.63578)
(18.1225 0 -14.9792)
(46.8482 -7.28205e-14 -29.1778)
(33.904 7.03687e-14 -20.2448)
(-4.14578 -1.36628e-13 0.0539706)
(-18.8135 6.52803e-14 10.0048)
(-14.8478 -6.20168e-14 7.71817)
(-8.26804 0 4.39941)
(-4.36368 5.53185e-14 2.25472)
(-1.82404 0 0.614727)
(0.73588 0 -1.18161)
(2.49279 -9.47709e-14 -2.22874)
(4.01859 0 -3.37961)
(3.19559 -1.46353e-17 -3.31172)
(1.57479 8.30539e-14 -3.13019)
(-3.26762 0 -2.2274)
(-5.68481 0 1.14819)
(-8.43657 0 3.64248)
(-10.0037 6.92114e-14 4.9027)
(-8.9855 -1.31446e-13 4.72838)
(-8.35451 1.23726e-13 4.48219)
(-5.88328 0 3.17306)
(-4.55142 -1.09315e-13 2.62836)
(-2.89648 0 1.62101)
(-2.86808 1.89991e-13 1.61544)
(-482.145 -1.80832e-16 -913.3)
(-687.386 1.39492e-16 -511.734)
(-607.717 6.40445e-16 -275.621)
(-477.941 0 -159.491)
(-370.433 4.72232e-16 -103.614)
(-291.28 -9.58019e-18 -77.8573)
(-235.85 0 -57.0276)
(-201.876 -5.8297e-16 -44.2877)
(-177.332 0 -39.5817)
(-159.765 -6.11755e-16 -35.1803)
(-152.424 0 -32.1128)
(-146.497 0 -27.6518)
(-140.053 0 -26.4355)
(-133.889 0 -26.0205)
(-125.966 1.02516e-15 -24.498)
(-114.627 0 -23.3966)
(-101.959 0 -20.7463)
(-91.2821 0 -16.5263)
(-79.4131 -7.87122e-16 -15.9919)
(-70.5321 -6.26887e-18 -15.2158)
(-65.2309 0 -12.0864)
(-59.3084 -1.40489e-17 -11.7256)
(-51.3695 0 -8.27951)
(-48.6619 1.36658e-15 -0.853162)
(-31.8275 0 15.1581)
(-27.6667 0 20.6996)
(-20.7144 1.19961e-15 33.9586)
(11.1158 0 65.3629)
(-3.65343 0 37.2936)
(-51.6109 2.1481e-15 -41.7396)
(-27.5832 0 -2.18241)
(-21.4086 0 1.35872)
(-26.2425 0 -2.81568)
(-27.3906 0 -4.96162)
(-27.3146 -1.63923e-15 -7.57415)
(-27.0772 0 -6.18004)
(-22.3545 0 -4.9901)
(-16.9842 2.82063e-15 -3.81031)
(-14.2436 0 -1.36599)
(-8.41208 5.24919e-15 -0.94124)
(-5.90662 -7.85871e-18 -1.11636)
(-5.5111 2.55477e-15 -0.019098)
(-3.12814 0 -0.733735)
(-6.90462 0 -0.161719)
(-6.54201 2.53485e-15 -1.41727)
(-9.28295 0 -1.74752)
(-11.1081 4.60196e-15 -1.59044)
(-9.91303 0 -2.61081)
(-10.2781 -2.99571e-18 -2.94015)
(-9.98557 0 -3.01466)
(-6.10732 0 -2.09913)
(-6.167 0 -2.2434)
(-5.61138 3.11699e-15 -2.27415)
(-4.01818 0 -1.91952)
(-5.25066 0 -1.19111)
(-5.75309 0 -0.193986)
(-7.79549 0 0.880006)
(-9.60969 -8.85828e-15 1.30193)
(-10.4598 0 1.67713)
(-9.37096 3.83905e-18 1.08092)
(-7.51454 0 0.311697)
(-6.97653 -2.7699e-15 -1.25272)
(1.05873 -5.2448e-15 4.52623)
(-0.89423 0 -5.78468)
(5.72728 -7.17287e-15 -9.23222)
(13.3257 -2.87586e-15 -13.1638)
(17.9621 0 -15.0828)
(15.1926 1.26379e-15 -11.2503)
(-10.0525 0 3.17739)
(-41.3205 0 24.0119)
(-108.34 0 64.779)
(-240.241 0 127.719)
(9.53198 2.27666e-16 -31.9317)
(259.625 3.81827e-15 -151.389)
(86.3031 0 -40.8623)
(-41.6254 0 21.7268)
(-27.6192 4.62827e-18 13.5926)
(-50.2839 -1.2347e-14 24.08)
(-30.1386 -6.8015e-15 -0.6533)
(104.504 0 -75.1459)
(234.477 0 -144.595)
(272.516 0 -159.024)
(179.961 -3.36011e-14 -98.879)
(27.139 -2.29232e-17 -11.8805)
(-105.04 -1.75396e-14 59.9844)
(-192.005 0 110.391)
(-216.231 -1.86961e-14 119.935)
(-165.062 1.92114e-14 87.5803)
(-110.894 0 57.6831)
(-69.9887 0 34.7885)
(-25.0194 3.86587e-14 10.4378)
(-7.38637 0 0.807524)
(6.06892 3.84609e-14 -5.55082)
(-6.88245 -3.59451e-18 2.83085)
(-25.2392 3.73173e-14 12.8932)
(-11.8561 -3.53769e-14 3.58613)
(36.9521 0 -26.0913)
(77.5658 6.81483e-14 -46.4098)
(51.8186 -6.5844e-14 -28.4453)
(-7.61813 1.27903e-13 4.66433)
(-29.7708 0 16.9009)
(-22.9793 -5.80172e-14 12.2744)
(-12.9782 0 6.8678)
(-6.6905 -5.17268e-14 3.43149)
(-2.42095 4.89321e-14 0.874816)
(1.9377 0 -1.85861)
(4.67796 8.85871e-14 -3.52125)
(7.02685 0 -4.98314)
(5.39709 1.63158e-13 -4.18927)
(2.59309 -7.76111e-14 -2.93002)
(-4.57901 0 0.121002)
(-9.24528 0 4.43776)
(-13.8703 0 7.43372)
(-16.3251 4.99382e-18 8.89044)
(-14.8186 1.2278e-13 8.17409)
(-13.6223 -1.15575e-13 7.51383)
(-9.82061 0 5.41025)
(-7.87093 -1.02088e-13 4.48153)
(-5.26596 0 2.96842)
(-5.28543 -1.15698e-18 3.02376)
(-308.966 1.12427e-16 -615.724)
(-496.695 3.18324e-17 -461.195)
(-497.345 -3.21652e-16 -291.713)
(-429.665 4.14035e-16 -188.371)
(-354.995 4.85332e-16 -133.627)
(-287.245 9.97318e-16 -94.3192)
(-239.843 0 -73.4542)
(-207.52 0 -54.2589)
(-184.67 0 -46.6451)
(-166.22 5.79442e-16 -41.1095)
(-159.274 0 -40.1062)
(-151.128 0 -33.712)
(-144.204 0 -30.2491)
(-136.183 0 -26.2567)
(-127.277 0 -22.9903)
(-114.768 8.9883e-16 -20.2511)
(-101.787 -8.44962e-16 -18.7161)
(-90.9395 0 -14.0197)
(-79.6342 0 -12.9719)
(-70.6602 1.43568e-15 -13.2293)
(-65.1379 -1.39824e-15 -10.1877)
(-59.5066 1.34711e-15 -9.94442)
(-52.3246 -1.32174e-15 -9.64203)
(-50.6886 -1.29406e-15 -4.85058)
(-42.469 1.23251e-15 -3.89146)
(-37.7609 -1.22062e-15 -0.829855)
(-27.338 0 11.0595)
(-12.6883 1.11694e-15 23.3979)
(-33.3419 0 7.80844)
(-47.275 -2.03308e-15 -28.0042)
(-19.6363 0 3.82219)
(-24.7595 0 -3.0941)
(-28.4802 0 -6.00677)
(-27.526 1.62046e-15 -4.9618)
(-26.8084 1.55065e-15 -7.00945)
(-25.4101 0 -4.25729)
(-21.6039 0 -4.66038)
(-16.0571 -2.66724e-15 -3.60829)
(-13.8417 0 -2.01526)
(-8.06078 5.14646e-18 -1.17444)
(-6.28245 2.5449e-15 -2.75449)
(-5.33282 0 -0.594307)
(-3.50006 0 -2.12423)
(-6.85179 0 -0.723273)
(-6.5766 0 -1.9572)
(-9.12 4.64076e-15 -2.23111)
(-10.6933 0 -1.56398)
(-9.62045 -4.09632e-15 -2.84917)
(-9.68964 -3.84998e-15 -2.97269)
(-9.2263 0 -2.97294)
(-5.89448 0 -3.20832)
(-5.70455 0 -3.07527)
(-4.77936 -2.94075e-15 -2.49876)
(-3.29268 2.82973e-15 -2.10347)
(-4.75582 5.22693e-15 -1.13642)
(-5.73971 0 0.0855446)
(-8.44793 4.49093e-15 1.41083)
(-10.8072 8.34741e-15 2.15937)
(-11.8248 0 2.79489)
(-10.542 6.40756e-15 2.17742)
(-8.18459 0 0.834374)
(-6.27979 2.5958e-15 -1.07985)
(2.60746 4.51572e-15 3.64372)
(2.37506 0 -7.51644)
(12.2757 3.37266e-15 -12.8418)
(22.6832 2.70037e-15 -19.1293)
(29.0007 0 -21.1683)
(23.5283 0 -14.7201)
(-10.7346 0 6.54913)
(-51.9914 1.05357e-16 35.0875)
(-134.592 6.74799e-16 88.0518)
(-298.391 0 156.745)
(-11.661 -2.90264e-15 -35.5691)
(328.154 -3.60936e-15 -192.969)
(134.384 0 -55.8549)
(-45.2387 0 27.1877)
(-39.3782 -5.61467e-15 21.0949)
(-58.1854 -5.80398e-18 28.2276)
(-23.6642 0 -4.64484)
(164.478 0 -118.727)
(334.794 0 -207.508)
(360.819 0 -207.891)
(217.459 -1.50766e-18 -111.812)
(7.33019 1.63272e-14 6.8786)
(-152.489 0 98.821)
(-251.44 0 148.902)
(-277.841 0 155.251)
(-213.803 1.80153e-14 112.74)
(-145.109 0 74.8808)
(-92.72 3.67084e-14 45.5266)
(-33.346 -3.6202e-14 13.61)
(-8.15389 3.61521e-14 0.509935)
(8.53559 -3.60052e-14 -6.78327)
(-9.00636 6.92242e-14 4.92705)
(-31.4156 -3.4924e-14 16.65)
(-9.573 3.31033e-14 1.09084)
(56.6384 0 -39.3943)
(104.351 0 -62.0891)
(64.1807 -6.159e-14 -33.5659)
(-13.2662 -5.98212e-14 9.22067)
(-39.5429 -5.71324e-14 23.0375)
(-30.023 -1.96444e-18 16.0443)
(-17.0939 0 8.92987)
(-8.67474 0 4.33807)
(-2.90003 -4.5737e-14 0.961503)
(2.97106 0 -2.60698)
(6.36898 -8.27907e-14 -4.59695)
(9.04897 0 -6.16162)
(6.18001 4.17507e-18 -4.54306)
(1.97691 0 -2.21119)
(-7.23322 -6.95846e-14 2.97854)
(-14.1018 6.67139e-14 7.58635)
(-19.8916 6.32702e-14 11.1533)
(-22.7814 3.00283e-18 12.6819)
(-20.692 0 11.5534)
(-18.7841 1.07932e-13 10.4177)
(-13.891 1.01712e-13 7.67562)
(-11.3598 9.53266e-14 6.42056)
(-7.99048 0 4.48336)
(-8.0737 -1.77514e-18 4.67341)
(-224.113 0 -459.367)
(-360.485 2.84527e-17 -390.38)
(-397.893 0 -286.885)
(-372.409 -3.91185e-16 -206.188)
(-325.626 -8.80619e-16 -153.544)
(-275.651 -4.78009e-16 -113.956)
(-238.223 0 -89.6204)
(-210.075 0 -70.0608)
(-188.452 5.5049e-16 -55.5575)
(-172.777 5.50488e-16 -48.3614)
(-164.012 -5.44519e-16 -43.9449)
(-155.022 -1.06123e-15 -37.0666)
(-148.406 -1.02055e-15 -34.0344)
(-138.911 0 -28.4846)
(-129.41 0 -23.8918)
(-116.08 -1.6989e-15 -18.6688)
(-103.194 1.20959e-18 -17.8198)
(-92.4657 0 -14.0265)
(-81.3062 7.11231e-16 -11.9238)
(-71.6205 1.36286e-15 -11.729)
(-65.9491 1.32191e-15 -9.10129)
(-60.2977 0 -8.0587)
(-52.8669 1.24947e-15 -8.84078)
(-51.359 -1.23176e-15 -4.56082)
(-43.9268 -1.16497e-15 -4.32374)
(-39.644 -4.49385e-19 -4.88567)
(-33.4388 0 2.22677)
(-33.7797 -6.70893e-18 -8.85757)
(-44.549 0 -7.54133)
(-32.8912 -1.81931e-15 -5.54517)
(-18.3178 0 3.66377)
(-27.2311 0 -3.58315)
(-29.5212 0 -7.37828)
(-27.3324 -1.53053e-15 -4.56384)
(-26.4757 0 -6.91579)
(-24.1339 0 -2.88913)
(-20.6565 0 -3.49688)
(-14.8414 0 -2.481)
(-13.3129 2.42795e-15 -2.17149)
(-7.35267 -4.70593e-15 -0.482207)
(-5.96248 0 -2.90792)
(-4.61262 -2.29551e-15 -0.044663)
(-3.29655 0 -2.29365)
(-6.39858 0 -0.540531)
(-6.24085 0 -1.71563)
(-8.75039 -2.02472e-18 -2.30994)
(-10.188 0 -1.35465)
(-9.15689 3.86242e-15 -2.72319)
(-8.98759 0 -2.76073)
(-8.4159 0 -2.64307)
(-5.28301 3.12859e-15 -3.38194)
(-4.93281 0 -3.18486)
(-3.93877 0 -2.40751)
(-2.70588 3.98916e-19 -2.14995)
(-4.43687 -4.92315e-15 -1.04579)
(-5.8451 0 0.423419)
(-9.12204 9.10401e-19 2.03908)
(-12.0205 -7.85378e-15 2.97417)
(-13.2071 0 3.79124)
(-11.749 -3.0138e-15 3.12494)
(-8.88543 0 1.15803)
(-5.6213 -2.442e-15 -1.17762)
(1.86856 -4.2474e-15 -1.79154)
(5.82586 0 -9.89599)
(18.9629 -3.16605e-15 -17.2446)
(32.1974 -3.16888e-18 -25.5287)
(39.8409 0 -27.1828)
(31.1785 0 -17.2263)
(-11.7139 0 10.8437)
(-61.5582 -1.95881e-16 46.1763)
(-153.82 1.71531e-18 109.065)
(-319.508 0 164.707)
(-51.03 2.81262e-15 -38.8452)
(374.204 6.77991e-15 -223.567)
(183.603 0 -69.1018)
(-42.258 0 30.9899)
(-50.9758 0 28.9832)
(-60.6364 -4.23437e-18 28.7336)
(-9.47947 0 -17.9757)
(231.251 0 -168.478)
(430.651 0 -269.759)
(429.016 0 -242.33)
(230.665 1.47684e-14 -106.319)
(-26.567 1.5328e-14 38.0861)
(-199.373 0 136.764)
(-298.173 0 179.548)
(-325.257 0 180.972)
(-253.612 5.40508e-18 131.265)
(-174.617 0 88.2348)
(-113.351 -3.43645e-14 54.143)
(-41.8634 0 16.2304)
(-9.13897 -3.38337e-14 -0.160788)
(10.2288 0 -7.54103)
(-11.0013 -3.23848e-14 7.17306)
(-35.5371 0 19.0796)
(-4.46131 0 -3.72684)
(76.5923 0 -53.61)
(127.206 0 -75.0274)
(72.0999 5.75893e-14 -34.9658)
(-18.4481 0 16.82)
(-48.0907 5.34099e-14 28.3317)
(-36.0952 5.07089e-14 18.9791)
(-20.7311 0 10.5126)
(-10.4122 0 4.97034)
(-3.35184 0 0.937741)
(3.73908 0 -3.25435)
(7.43388 -1.4912e-18 -5.33164)
(10.0448 0 -6.69747)
(5.73437 -1.42428e-13 -4.07617)
(-0.138705 0 -0.967999)
(-11.1445 1.29997e-13 6.10974)
(-19.5966 -6.23092e-14 11.188)
(-26.2 -5.90891e-14 15.0321)
(-29.1988 -5.63993e-14 16.4074)
(-26.6047 0 14.8969)
(-23.9167 0 13.2131)
(-18.1618 -1.89936e-13 9.9982)
(-15.0914 8.90018e-14 8.45469)
(-11.092 8.22564e-14 6.20615)
(-11.222 -7.73106e-14 6.53382)
(-174.763 0 -351.86)
(-274.34 -3.71896e-16 -327.416)
(-310.688 0 -263.221)
(-308.808 0 -208.858)
(-286.037 0 -160.548)
(-257.611 0 -125.736)
(-229.769 0 -99.061)
(-207.765 -5.13994e-16 -79.9459)
(-189.933 -5.19398e-16 -64.8059)
(-176.059 -1.03919e-15 -55.6253)
(-165.84 1.02764e-15 -47.631)
(-158.071 1.00158e-15 -40.0905)
(-151.083 9.6325e-16 -35.1364)
(-140.685 0 -28.9553)
(-130.875 0 -24.3197)
(-117.57 1.60293e-15 -17.6133)
(-105.069 1.50569e-15 -16.3005)
(-94.1609 0 -13.3451)
(-82.8133 -6.71357e-16 -10.2935)
(-72.7825 -1.28642e-15 -9.73382)
(-67.0749 0 -7.8466)
(-61.4921 -1.21431e-15 -6.06181)
(-53.5687 0 -7.24837)
(-51.8331 -1.07217e-18 -3.76295)
(-44.6788 1.10835e-15 -2.25006)
(-40.5907 2.28193e-18 -4.78662)
(-36.6961 0 0.93984)
(-36.8562 -9.89604e-16 -9.75969)
(-41.3275 1.86857e-15 -5.08279)
(-25.3604 3.45246e-15 7.12266)
(-24.3627 1.73214e-15 -3.3404)
(-28.9737 0 -3.77907)
(-30.8105 1.55824e-15 -8.62038)
(-27.3047 0 -4.32883)
(-26.4399 0 -7.01171)
(-23.4621 0 -2.65131)
(-19.8386 0 -2.40662)
(-13.8732 0 -1.19233)
(-12.8847 7.89693e-18 -2.07175)
(-6.84445 2.22045e-15 0.131021)
(-5.61812 0 -2.7417)
(-4.03099 4.33377e-15 0.50607)
(-3.16274 0 -2.32225)
(-6.05782 0 -0.47008)
(-6.01279 0 -1.49277)
(-8.47207 -4.12089e-15 -2.43501)
(-9.82318 0 -1.33261)
(-8.78999 0 -2.66253)
(-8.42901 0 -2.70187)
(-7.78687 0 -2.45311)
(-4.69073 -5.89017e-15 -3.33218)
(-4.30318 0 -3.2715)
(-3.31848 0 -2.36446)
(-2.30765 -2.5086e-15 -2.15711)
(-4.25838 0 -0.896367)
(-6.01947 0 0.836039)
(-9.78295 -7.95685e-15 2.73842)
(-13.1807 3.69131e-15 3.76537)
(-14.5214 0 4.71219)
(-12.9633 0 3.91014)
(-9.59518 0 1.30221)
(-5.27218 2.28586e-15 -1.48439)
(1.52038 0 -6.97465)
(9.52048 0 -13.1844)
(25.7344 5.94554e-15 -22.331)
(41.6919 -4.75935e-15 -32.2197)
(50.2436 0 -32.8699)
(37.8823 0 -18.6151)
(-13.1061 0 16.2027)
(-69.9711 9.09591e-17 57.4478)
(-166.736 -5.96384e-16 126.62)
(-295.168 -1.91942e-15 147.754)
(-108.019 -2.63858e-15 -33.2011)
(396.781 -3.18145e-15 -245.402)
(231.359 3.83998e-15 -78.8471)
(-33.6243 0 33.6063)
(-61.2634 0 36.5535)
(-58.412 5.10717e-15 25.4997)
(12.3975 0 -41.8927)
(302.082 0 -224.957)
(518.563 0 -326.94)
(473.132 0 -259.938)
(220.255 0 -83.3074)
(-70.3911 -2.87188e-14 75.6427)
(-240.766 0 170.215)
(-331.181 -1.53089e-14 202.726)
(-359.291 0 199.174)
(-285.139 3.74523e-18 144.58)
(-199.594 3.16357e-14 98.6919)
(-132.259 0 60.7953)
(-50.8161 0 18.4405)
(-10.5935 0 -0.91322)
(11.1493 0 -7.94023)
(-12.5536 3.02918e-14 9.31704)
(-37.4149 0 20.0489)
(2.34008 0 -11.6215)
(95.8806 0 -68.1005)
(145.664 0 -85.2872)
(76.0364 0 -33.3068)
(-26.7846 0 19.6575)
(-55.2641 0 32.8338)
(-41.2243 0 21.2812)
(-23.9251 -4.51079e-14 11.7302)
(-11.9553 0 5.43086)
(-3.87463 0 0.887046)
(4.09796 0 -3.72509)
(7.75904 7.22601e-14 -5.6541)
(9.92526 0 -6.59107)
(4.04809 6.65161e-14 -2.87939)
(-3.25043 0 1.27532)
(-15.9869 4.43526e-18 9.43613)
(-25.558 0 14.9603)
(-32.6812 5.51793e-14 19.0095)
(-35.5386 0 20.0569)
(-32.5825 0 18.2534)
(-29.0802 0 16.0022)
(-22.6973 8.86622e-14 12.4414)
(-19.112 -1.66177e-13 10.6312)
(-14.6191 -1.53577e-13 8.14532)
(-14.6994 -7.2162e-14 8.59168)
(-142.581 0 -280.382)
(-211.496 3.97745e-16 -269.754)
(-246.968 0 -231.52)
(-257.133 0 -195.849)
(-248.522 4.53533e-16 -160.965)
(-232.892 4.69685e-16 -128.655)
(-214.482 -4.83069e-16 -104.337)
(-199.087 1.46642e-15 -85.3243)
(-186.102 0 -70.2771)
(-173.831 -1.67416e-18 -58.0659)
(-165.618 -4.841e-16 -50.4583)
(-159.437 0 -43.3227)
(-151.714 0 -35.6332)
(-141.565 0 -28.2963)
(-131.802 0 -23.644)
(-119.395 2.06362e-19 -17.2584)
(-107.36 4.09637e-19 -14.9191)
(-95.8866 -6.68941e-16 -11.931)
(-84.6938 -6.36204e-16 -8.56432)
(-75.2267 0 -8.45565)
(-69.5646 1.1849e-15 -7.64674)
(-63.8296 1.14448e-15 -5.04042)
(-55.3811 0 -5.98154)
(-53.5599 7.09365e-19 -3.89135)
(-46.766 2.54273e-18 -1.55616)
(-41.8841 1.02416e-15 -4.326)
(-38.7323 0 1.45135)
(-36.7746 0 -5.46588)
(-38.4642 -1.76057e-15 -2.06093)
(-27.0186 1.77547e-17 7.25948)
(-28.9656 -3.2597e-15 -6.13285)
(-30.0054 0 -3.44891)
(-30.8531 -2.93633e-15 -7.5911)
(-28.7028 0 -6.54705)
(-27.0748 0 -7.92858)
(-23.1438 1.23263e-15 -2.84365)
(-19.6311 0 -2.28161)
(-13.5607 2.25709e-15 -0.588679)
(-12.7546 9.17123e-18 -2.03166)
(-6.51185 -2.10411e-15 0.778485)
(-5.43138 0 -2.57)
(-3.69394 8.25451e-18 0.893149)
(-3.21377 0 -2.38446)
(-5.89342 0 -0.606484)
(-5.96063 0 -1.41607)
(-8.30976 0 -2.619)
(-9.57939 0 -1.43966)
(-8.53894 -3.41788e-15 -2.67568)
(-8.02209 0 -2.77391)
(-7.34183 0 -2.39739)
(-4.26415 2.76931e-15 -3.28634)
(-3.87434 0 -3.41407)
(-2.87434 2.44944e-15 -2.30907)
(-2.05043 2.3592e-15 -2.07397)
(-4.17826 -4.34979e-15 -0.672083)
(-6.22055 0 1.30864)
(-10.3869 3.7386e-15 3.47778)
(-14.218 3.45677e-15 4.53898)
(-15.7254 0 5.52789)
(-14.1753 0 4.48063)
(-10.2865 0 1.29081)
(-5.03389 -2.14629e-15 -2.19532)
(3.27654 0 -8.80837)
(13.2108 0 -17.0994)
(32.5303 -2.78892e-15 -27.9092)
(50.9595 4.46103e-15 -39.0213)
(59.9128 0 -37.981)
(43.4382 0 -18.6873)
(-14.8994 0 22.7127)
(-77.0024 0 68.5045)
(-172.695 -5.62531e-16 138.344)
(-225.945 1.79972e-15 107.121)
(-190.465 0 -18.0009)
(396.105 0 -259.324)
(274.711 -3.5988e-15 -84.6191)
(-20.7387 0 35.7728)
(-69.0528 -4.63844e-15 43.1686)
(-51.9768 4.79084e-15 18.2889)
(43.3719 0 -73.6786)
(375.07 0 -285.468)
(593.943 0 -376.115)
(490.755 0 -258.37)
(190.722 0 -45.1782)
(-115.756 1.34456e-14 116.988)
(-272.758 0 197.371)
(-352.423 2.86569e-14 218.797)
(-382.845 0 211.01)
(-310.002 1.61413e-18 153.472)
(-220.985 9.74119e-18 106.048)
(-149.708 0 66.1914)
(-60.4645 2.96626e-14 20.3746)
(-12.8766 0 -1.63452)
(11.3821 0 -7.97934)
(-13.3653 -5.66455e-14 11.164)
(-37.0515 0 19.4714)
(12.4745 0 -18.2513)
(113.799 0 -82.1499)
(159.743 0 -92.5099)
(76.6043 0 -29.0239)
(-30.7224 0 29.6465)
(-60.9964 0 36.5531)
(-45.5725 0 22.9551)
(-26.7744 4.21419e-14 12.6178)
(-13.4168 0 5.73409)
(-4.57169 0 0.86779)
(3.9514 0 -3.91768)
(7.28883 -6.74924e-14 -5.51827)
(8.73561 -6.41196e-14 -5.82086)
(1.3589 -6.21218e-14 -1.06304)
(-6.97346 5.91223e-14 4.59359)
(-21.376 2.43862e-18 13.1298)
(-31.6767 -5.43386e-14 18.8995)
(-39.2484 -1.0304e-13 23.0368)
(-41.8007 0 23.6354)
(-38.6991 9.33434e-14 21.6449)
(-34.3977 8.7849e-14 18.8107)
(-27.5876 0 15.0422)
(-23.4727 7.7562e-14 12.9651)
(-18.6105 7.16779e-14 10.3325)
(-18.4872 6.73562e-14 10.8063)
(-122.535 0 -227.888)
(-168.937 -1.98179e-16 -223.554)
(-198.697 0 -203.983)
(-214.033 0 -177.877)
(-215.395 -4.27071e-16 -153.998)
(-208.084 -4.42191e-16 -126.539)
(-198.933 4.54707e-16 -106.775)
(-188.013 -1.39317e-15 -89.947)
(-177.702 0 -75.2781)
(-168.561 -4.66541e-16 -61.7561)
(-163.907 9.11209e-16 -54.1956)
(-157.947 0 -46.0334)
(-150.619 -8.46692e-16 -37.661)
(-141.847 0 -29.3345)
(-132.648 -7.59439e-16 -23.5649)
(-121.593 -7.11224e-16 -17.9452)
(-109.953 -6.68141e-16 -14.6689)
(-98.1453 6.29665e-16 -11.1466)
(-88.0993 1.20017e-15 -8.25944)
(-79.3455 0 -8.24687)
(-72.9516 -1.11535e-15 -8.00227)
(-66.5841 0 -4.36933)
(-57.8941 0 -4.56365)
(-55.7855 1.0315e-15 -3.75559)
(-48.8618 -1.97406e-15 -0.0994045)
(-43.0002 0 -2.53423)
(-40.6136 0 2.2008)
(-37.3641 0 -1.63394)
(-38.2225 1.67048e-15 -1.39904)
(-29.9484 -1.55587e-15 6.30099)
(-30.6863 1.35701e-18 -4.0505)
(-29.9286 -1.44041e-15 -1.27812)
(-31.2319 2.76306e-15 -4.81624)
(-29.1375 -1.28836e-15 -5.0798)
(-26.8258 1.22502e-15 -7.79645)
(-23.9701 3.23141e-18 -5.00827)
(-19.9246 0 -2.66898)
(-13.7459 -2.12282e-15 -0.484778)
(-12.7659 -2.04209e-15 -2.00453)
(-6.39861 1.97862e-15 1.33245)
(-5.44658 0 -2.3504)
(-3.54039 -1.92856e-15 1.25461)
(-3.37072 -2.00004e-15 -2.29909)
(-5.85176 -1.93033e-15 -0.811177)
(-6.04871 -1.88271e-15 -1.40999)
(-8.27087 0 -2.84761)
(-9.41607 0 -1.56824)
(-8.40425 7.50743e-19 -2.71816)
(-7.75685 0 -2.91468)
(-7.06519 0 -2.43305)
(-4.00048 2.60204e-15 -3.23054)
(-3.5949 -2.50067e-15 -3.52766)
(-2.5683 -2.30046e-15 -2.21222)
(-1.89574 1.04317e-18 -1.87988)
(-4.15639 1.02658e-18 -0.368503)
(-6.40179 0 1.82465)
(-10.8742 0 4.24594)
(-15.058 -6.48126e-15 5.31191)
(-16.7768 0 6.21881)
(-15.339 0 4.85194)
(-11.0058 2.26764e-15 1.07566)
(-4.94964 0 -3.37476)
(5.07006 0 -10.8023)
(16.9614 -3.23059e-15 -21.2644)
(39.1638 2.60832e-15 -33.9088)
(59.7276 -4.17919e-15 -45.7625)
(68.5371 0 -42.2751)
(47.749 9.24755e-16 -17.2212)
(-16.929 0 30.2877)
(-81.9003 0 78.6921)
(-170.349 1.05676e-15 140.271)
(-127.255 0 54.7785)
(-301.952 0 17.5118)
(371.225 0 -266.616)
(311.401 0 -85.9817)
(-5.0989 0 38.8334)
(-73.3806 4.3436e-15 48.2712)
(-41.4877 4.20596e-18 6.81464)
(82.0224 -5.0143e-15 -113.748)
(447.214 5.19335e-15 -348.139)
(652.91 0 -413.795)
(481.317 0 -236.629)
(149.906 0 3.02249)
(-157.336 0 154.096)
(-293.71 0 217.856)
(-365.195 9.68606e-19 230.228)
(-399.056 0 218.767)
(-329.889 -1.38269e-14 159.162)
(-239.149 1.05493e-17 110.684)
(-166.037 0 70.6269)
(-71.1182 -2.77341e-14 22.1821)
(-16.3142 0 -2.14704)
(10.9311 2.75512e-14 -7.74418)
(-13.2311 -7.86105e-19 12.5217)
(-34.3242 0 17.3645)
(21.6284 0 -29.6348)
(129.453 0 -95.383)
(169.474 0 -96.7569)
(75.1478 4.70089e-14 -22.6834)
(-33.6501 0 39.786)
(-65.8278 0 39.6677)
(-49.2527 4.13585e-14 24.1442)
(-29.3755 0 13.2308)
(-14.8744 -3.68456e-14 5.95986)
(-5.52922 3.48429e-14 0.93998)
(3.21314 0 -3.81112)
(6.04264 1.26057e-13 -4.92534)
(6.58027 -6.56605e-19 -4.45576)
(-2.06869 1.16015e-13 1.35915)
(-11.6548 -5.52033e-14 7.61989)
(-26.9619 -5.29315e-14 16.9813)
(-37.7612 5.07322e-14 22.8219)
(-45.8145 4.80988e-14 27.0838)
(-48.0109 4.59019e-14 27.1624)
(-45.0201 -8.71378e-14 25.127)
(-39.9622 -8.20057e-14 21.7225)
(-32.9199 -7.72485e-14 17.8578)
(-28.2065 -7.23939e-14 15.4796)
(-23.1117 0 12.7805)
(-22.5596 0 13.1473)
(-104.343 0 -190.436)
(-140.946 -2.29513e-16 -187.76)
(-167.042 0 -178.988)
(-183.337 0 -162.183)
(-187.818 0 -143.054)
(-186.021 0 -123.39)
(-181.683 -4.48071e-16 -106.384)
(-173.958 4.40836e-16 -90.5279)
(-166.564 -4.44146e-16 -76.7661)
(-161.181 8.73314e-16 -65.774)
(-157.537 -8.56592e-16 -56.8806)
(-151.92 0 -46.7634)
(-146.877 7.95916e-16 -39.2563)
(-139.787 0 -30.9017)
(-131.721 7.13927e-16 -23.6276)
(-122.259 6.68786e-16 -17.8006)
(-111.399 0 -13.9485)
(-100.327 0 -10.3541)
(-91.9468 -5.65339e-16 -8.29537)
(-83.3126 0 -7.32759)
(-75.7586 0 -6.77839)
(-69.3206 1.02135e-15 -3.28792)
(-60.8891 0 -2.58273)
(-58.0371 0 -2.57719)
(-50.9552 9.29408e-16 1.74569)
(-44.5827 0 0.134511)
(-43.3536 0 2.38663)
(-39.2283 0 1.52148)
(-39.3129 -3.14527e-15 -0.835085)
(-32.6032 0 5.6632)
(-32.0263 -2.22077e-18 -1.03861)
(-30.7492 -2.94421e-18 0.548266)
(-31.6317 -1.29832e-15 -2.73188)
(-28.3422 1.21081e-15 -0.858457)
(-26.8788 -2.30567e-15 -4.58368)
(-23.8262 -1.09259e-15 -4.24311)
(-20.3994 0 -3.96409)
(-14.3777 0 -0.796916)
(-12.8595 -1.93976e-15 -1.73487)
(-6.64439 1.87688e-15 1.65028)
(-5.60282 0 -2.05628)
(-3.56127 0 1.59731)
(-3.55879 4.36847e-19 -1.87592)
(-5.92176 1.81288e-15 -0.969096)
(-6.25659 1.76801e-15 -1.38699)
(-8.32485 3.40838e-15 -3.02782)
(-9.3077 0 -1.6451)
(-8.35551 4.6313e-19 -2.69004)
(-7.58748 0 -3.00419)
(-6.89945 0 -2.45215)
(-3.85098 -2.44222e-15 -3.08707)
(-3.41131 2.34686e-15 -3.5251)
(-2.38439 0 -2.08317)
(-1.82597 -2.07978e-15 -1.60526)
(-4.15855 7.76084e-19 -0.00140234)
(-6.51939 0 2.35576)
(-11.1815 0 5.03295)
(-15.6299 6.06249e-15 6.10351)
(-17.6242 0 6.78976)
(-16.3749 0 5.12225)
(-11.792 -4.24785e-15 0.616176)
(-4.89524 0 -4.71883)
(6.68935 0 -13.2298)
(20.6798 6.0461e-15 -25.5789)
(45.4488 -2.44458e-15 -40.1394)
(67.7081 1.95737e-15 -52.2621)
(75.8294 0 -45.5339)
(50.7944 -8.66416e-16 -14.1487)
(-18.792 0 38.6576)
(-83.5045 -6.42264e-17 86.9224)
(-157.187 -4.96018e-16 131.06)
(-35.9808 0 13.0693)
(-445.851 0 75.6081)
(321.47 2.63017e-15 -269.202)
(339.713 3.16604e-15 -83.2958)
(11.7252 0 44.2958)
(-73.7075 0 51.4618)
(-26.7661 -8.40989e-15 -9.35544)
(126.744 4.69228e-15 -161.148)
(515.415 -9.72058e-15 -410.361)
(692.257 0 -436.955)
(446.728 0 -195.481)
(109.052 0 54.5195)
(-187.801 0 187.589)
(-305.185 0 232.073)
(-373.86 1.48036e-19 239.364)
(-411.288 0 224.332)
(-346.387 0 162.551)
(-254.258 1.16595e-17 113.459)
(-182.014 0 73.9355)
(-83.0438 -2.59306e-14 24.0097)
(-21.2612 0 -2.33518)
(9.75644 -2.57484e-14 -7.28107)
(-12.0674 -5.98374e-19 13.2594)
(-29.818 0 13.8283)
(30.4772 0 -43.0609)
(142.722 0 -107.387)
(175.138 0 -98.0822)
(72.0958 1.64727e-18 -14.8289)
(-38.9925 4.27008e-14 43.4579)
(-69.5634 -4.07108e-14 42.2249)
(-52.4376 -3.86284e-14 24.8921)
(-31.8156 0 13.642)
(-16.4139 3.44095e-14 6.15046)
(-6.79926 -3.25375e-14 1.14319)
(1.8864 0 -3.36659)
(4.12333 -5.88529e-14 -3.9273)
(3.68794 1.11813e-13 -2.6211)
(-6.03046 -5.41598e-14 3.86167)
(-16.292 0 11.2703)
(-32.463 4.94172e-14 20.8297)
(-43.5809 0 26.6476)
(-52.2992 0 31.0936)
(-54.1965 -4.28484e-14 30.6573)
(-51.6123 0 28.7315)
(-45.8737 0 24.7738)
(-38.7832 7.21029e-14 20.9302)
(-33.3396 6.75697e-14 18.1813)
(-28.15 6.24377e-14 15.5021)
(-26.8771 -5.86601e-14 15.6039)
(-93.4939 0 -161.001)
(-119.567 2.1571e-16 -160.958)
(-141.341 4.53261e-16 -155.522)
(-156.202 0 -144.716)
(-163.888 0 -128.418)
(-165.925 0 -114.657)
(-162.336 4.2105e-16 -101.988)
(-158.255 0 -88.6671)
(-154.957 4.17265e-16 -75.5022)
(-151.175 0 -65.5)