/*--------------------------------*- C++ -*----------------------------------*\
| =========                 |                                                 |
| \\      /  F ield         | OpenFOAM: The Open Source CFD Toolbox           |
|  \\    /   O peration     | Version:  2412                                  |
|   \\  /    A nd           | Website:  www.openfoam.com                      |
|    \\/     M anipulation  |                                                 |
\*---------------------------------------------------------------------------*/
FoamFile
{
    version     2.0;
    format      ascii;
    arch        "LSB;label=32;scalar=64";
    class       volScalarField;
    location    "0.01";
    object      p;
}
// * * * * * * * * * * * * * * * * * * * * * * * * * * * * * * * * * * * * * //

dimensions      [0 2 -2 0 0 0 0];

internalField   nonuniform List<scalar> 
12600
(
1.00979
86.3763
129.743
158.789
181.388
199.864
215.525
229.103
241.081
251.787
261.45
270.241
278.284
285.68
292.511
298.846
304.745
310.256
315.416
320.254
324.787
329.029
332.994
336.697
340.158
343.4
346.449
349.329
352.058
354.653
357.121
359.469
361.697
363.804
365.783
367.628
369.332
370.89
372.298
373.555
374.66
375.615
376.427
377.096
377.636
378.038
378.321
378.469
378.507
378.413
378.212
377.875
377.436
376.85
376.161
375.33
374.39
373.29
372.085
370.705
369.188
367.528
365.687
363.705
361.547
359.206
356.69
353.981
351.069
347.956
344.613
341.051
337.235
333.175
328.864
324.256
319.407
314.228
308.759
302.967
296.829
290.35
283.494
276.267
268.629
260.589
252.106
243.185
233.792
223.919
213.542
202.651
191.208
179.238
166.661
153.492
139.804
125.603
110.825
95.4409
79.4208
62.7397
45.4113
27.3835
8.67544
-10.7519
-30.8796
-51.7663
-73.3165
-95.7419
-118.56
-142.779
-166.257
-192.795
-216.579
-245.162
-272.93
-297.209
-333.166
-348.63
20.5784
75.5296
118.353
149.987
174.628
194.54
211.23
225.565
238.118
249.271
259.29
268.369
276.648
284.241
291.238
297.715
303.736
309.354
314.607
319.525
324.129
328.434
332.454
336.207
339.712
342.994
346.08
348.993
351.754
354.376
356.87
359.241
361.49
363.616
365.612
367.473
369.191
370.761
372.181
373.449
374.564
375.528
376.349
377.026
377.574
377.983
378.272
378.427
378.47
378.381
378.185
377.851
377.415
376.833
376.147
375.319
374.382
373.285
372.083
370.706
369.191
367.535
365.695
363.716
361.561
359.221
356.709
354.001
351.092
347.981
344.64
341.08
337.266
333.208
328.899
324.293
319.446
314.27
308.803
303.012
296.877
290.4
283.546
276.321
268.686
260.647
252.166
243.248
233.858
223.986
213.612
202.723
191.283
179.316
166.741
153.575
139.889
125.69
110.913
95.5315
79.5137
62.835
45.509
27.4836
8.77792
-10.6471
-30.7723
-51.6567
-73.2043
-95.6281
-118.443
-142.662
-166.135
-192.675
-216.455
-245.03
-272.809
-297.07
-333.042
-348.591
43.7854
81.1402
117.578
147.321
171.703
191.821
208.824
223.465
236.289
247.673
257.889
267.132
275.552
283.265
290.365
296.933
303.034
308.721
314.037
319.01
323.662
328.01
332.068
335.855
339.392
342.703
345.814
348.751
351.533
354.175
356.687
359.074
361.338
363.476
365.485
367.356
369.084
370.663
372.091
373.367
374.489
375.46
376.287
376.97
377.523
377.937
378.231
378.39
378.437
378.352
378.159
377.829
377.397
376.819
376.136
375.311
374.377
373.282
372.081
370.707
369.194
367.54
365.702
363.724
361.571
359.233
356.722
354.016
351.108
347.998
344.658
341.099
337.287
333.231
328.923
324.318
319.473
314.297
308.831
303.042
296.908
290.432
283.58
276.356
268.722
260.685
252.205
243.287
233.899
224.028
213.655
202.768
191.329
179.363
166.79
153.624
139.939
125.74
110.965
95.5842
79.5675
62.8898
45.5648
27.5404
8.83568
-10.5883
-30.7126
-51.5962
-73.1428
-95.5661
-118.38
-142.599
-166.07
-192.611
-216.388
-244.962
-272.747
-296.999
-332.986
-348.574
68.3375
94.1316
122.693
148.557
171.2
190.622
207.396
222.013
234.901
246.381
256.701
266.046
274.561
282.362
289.543
296.184
302.352
308.101
313.471
318.495
323.192
327.58
331.676
335.496
339.063
342.403
345.541
348.502
351.306
353.968
356.498
358.901
361.18
363.332
365.352
367.235
368.973
370.561
371.998
373.282
374.412
375.39
376.224
376.913
377.472
377.891
378.19
378.353
378.405
378.324
378.135
377.809
377.38
376.806
376.125
375.303
374.372
373.279
372.081
370.709
369.198
367.546
365.711
363.735
361.584
359.247
356.738
354.033
351.127
348.019
344.681
341.124
337.313
333.258
328.953
324.35
319.505
314.332
308.867
303.08
296.947
290.473
283.622
276.4
268.768
260.733
252.254
243.339
233.952
224.083
213.712
202.827
191.389
179.425
166.854
153.691
140.007
125.81
111.036
95.6573
79.6424
62.9666
45.6435
27.6209
8.91821
-10.5039
-30.6263
-51.508
-73.0524
-95.4744
-118.285
-142.505
-165.971
-192.515
-216.287
-244.856
-272.65
-296.887
-332.896
-348.553
91.9538
109.814
131.488
152.994
173.061
191.081
207.115
221.361
234.077
245.492
255.804
265.172
273.726
281.573
288.804
295.496
301.715
307.512
312.929
317.994
322.731
327.156
331.285
335.137
338.734
342.101
345.265
348.25
351.076
353.757
356.305
358.725
361.018
363.184
365.216
367.109
368.858
370.456
371.902
373.193
374.331
375.316
376.157
376.853
377.418
377.843
378.147
378.316
378.371
378.295
378.11
377.788
377.363
376.792
376.115
375.296
374.367
373.277
372.081
370.711
369.203
367.553
365.72
363.746
361.597
359.263
356.755
354.052
351.148
348.041
344.705
341.15
337.341
333.288
328.984
324.383
319.54
314.368
308.905
303.119
296.989
290.517
283.667
276.447
268.816
260.783
252.306
243.392
234.007
224.141
213.771
202.887
191.452
179.49
166.92
153.758
140.076
125.88
111.108
95.7309
79.7177
63.0436
45.7221
27.7012
9.00009
-10.4204
-30.5412
-51.4214
-72.9641
-95.3851
-118.194
-142.414
-165.877
-192.422
-216.19
-244.756
-272.558
-296.783
-332.818
-348.539
113.721
126.291
142.551
159.932
177.107
193.268
208.141
221.682
233.974
245.142
255.312
264.604
273.123
280.962
288.202
294.915
301.16
306.987
312.435
317.532
322.299
326.754
330.911
334.791
338.414
341.807
344.994
348.002
350.848
353.549
356.114
358.55
360.857
363.035
365.079
366.983
368.741
370.348
371.803
373.102
374.248
375.241
376.088
376.791
377.362
377.793
378.103
378.276
378.337
378.265
378.084
377.767
377.345
376.778
376.104
375.289
374.363
373.275
372.082
370.715
369.209
367.561
365.731
363.759
361.612
359.279
356.774
354.073
351.17
348.066
344.731
341.178
337.371
333.32
329.018
324.418
319.577
314.407
308.946
303.162
297.033
290.563
283.715
276.497
268.868
260.836
252.362
243.45
234.067
224.202
213.834
202.953
191.519
179.559
166.992
153.831
140.15
125.956
111.186
95.8105
79.7991
63.1269
45.8073
27.7883
9.0891
-10.3296
-30.4484
-51.3268
-72.8676
-95.2873
-118.093
-142.314
-165.772
-192.32
-216.083
-244.644
-272.456
-296.667
-332.734
-348.529
133.394
142.468
154.682
168.516
182.874
196.987
210.432
223.006
234.653
245.394
255.284
264.393
272.797
280.566
287.767
294.463
300.706
306.542
312.004
317.118
321.905
326.38
330.56
334.461
338.107
341.522
344.732
347.76
350.626
353.345
355.926
358.376
360.697
362.888
364.943
366.856
368.623
370.239
371.702
373.009
374.163
375.163
376.018
376.727
377.305
377.741
378.057
378.236
378.301
378.234
378.057
377.745
377.326
376.764
376.093
375.281
374.358
373.273
372.083
370.718
369.215
367.57
365.742
363.772
361.627
359.297
356.793
354.095
351.194
348.092
344.759
341.208
337.403
333.354
329.054
324.456
319.617
314.449
308.99
303.207
297.081
290.612
283.767
276.55
268.923
260.894
252.421
243.511
234.13
224.267
213.902
203.022
191.591
179.633
167.068
153.909
140.23
126.037
111.269
95.8953
79.8858
63.2156
45.898
27.881
9.18373
-10.233
-30.3499
-51.2264
-72.7651
-95.1836
-117.987
-142.208
-165.662
-192.212
-215.969
-244.526
-272.35
-296.546
-332.651
-348.524
151.013
157.77
167.048
178.008
189.846
201.938
213.842
225.283
236.114
246.274
255.755
264.578
272.782
280.415
287.526
294.165
300.374
306.191
311.647
316.763
321.557
326.042
330.235
334.153
337.816
341.25
344.478
347.525
350.409
353.144
355.741
358.205
360.539
362.74
364.805
366.728
368.503
370.128
371.598
372.914
374.075
375.082
375.944
376.66
377.244
377.687
378.009
378.193
378.263
378.202
378.029
377.721
377.307
376.749
376.081
375.273
374.353
373.271
372.084
370.722
369.221
367.579
365.754
363.786
361.644
359.316
356.814
354.118
351.219
348.119
344.788
341.239
337.437
333.39
329.092
324.497
319.659
314.493
309.036
303.256
297.131
290.665
283.821
276.607
268.982
260.955
252.484
243.576
234.197
224.337
213.974
203.096
191.667
179.711
167.148
153.992
140.314
126.124
111.357
95.9855
79.9781
63.3101
45.9945
27.9796
9.28449
-10.1301
-30.2449
-51.1195
-72.656
-95.0731
-117.874
-142.096
-165.545
-192.096
-215.847
-244.401
-272.236
-296.417
-332.565
-348.524
166.744
171.955
179.132
187.846
197.55
207.787
218.164
228.402
238.31
247.774
256.737
265.178
273.103
280.534
287.502
294.039
300.18
305.951
311.377
316.476
321.261
325.746
329.942
333.868
337.543
340.991
344.236
347.298
350.198
352.948
355.559
358.036
360.381
362.593
364.667
366.598
368.381
370.013
371.492
372.814
373.983
374.997
375.866
376.589
377.18
377.629
377.957
378.147
378.223
378.167
377.999
377.696
377.285
376.733
376.069
375.264
374.348
373.268
372.084
370.725
369.227
367.588
365.766
363.8
361.66
359.335
356.836
354.142
351.245
348.147
344.819
341.272
337.473
333.427
329.132
324.539
319.703
314.54
309.085
303.307
297.185
290.72
283.879
276.667
269.044
261.019
252.551
243.645
234.269
224.411
214.05
203.175
191.748
179.795
167.234
154.079
140.403
126.215
111.451
96.0813
80.0762
63.4104
46.097
28.0844
9.39153
-10.0208
-30.1335
-51.0059
-72.5401
-94.9558
-117.754
-141.976
-165.42
-191.974
-215.718
-244.268
-272.116
-296.281
-332.475
-348.526
180.795
184.959
190.64
197.638
205.6
214.213
223.168
232.213
241.152
249.849
258.213
266.194
273.77
280.938
287.71
294.103
300.138
305.833
311.205
316.266
321.026
325.495
329.685
333.611
337.292
340.748
344.004
347.08
349.993
352.756
355.379
357.868
360.223
362.444
364.526
366.465
368.256
369.895
371.38
372.71
373.886
374.907
375.784
376.514
377.112
377.567
377.901
378.097
378.178
378.128
377.965
377.668
377.261
376.714
376.053
375.253
374.34
373.264
372.083
370.728
369.233
367.596
365.777
363.814
361.677
359.355
356.858
354.166
351.272
348.176
344.85
341.306
337.509
333.466
329.174
324.584
319.75
314.589
309.136
303.36
297.241
290.779
283.94
276.73
269.11
261.087
252.622
243.718
234.344
224.489
214.131
203.258
191.834
179.883
167.325
154.172
140.498
126.312
111.55
96.1828
80.1801
63.5167
46.2058
28.1956
9.50507
-9.90493
-30.0152
-50.8854
-72.4171
-94.8313
-117.626
-141.849
-165.288
-191.844
-215.58
-244.126
-271.989
-296.137
-332.382
-348.53
193.373
196.817
201.429
207.129
213.701
220.942
228.625
236.546
244.526
252.427
260.144
267.609
274.778
281.63
288.158
294.365
300.259
305.847
311.139
316.14
320.857
325.296
329.467
333.383
337.061
340.522
343.785
346.87
349.794
352.568
355.202
357.7
360.064
362.293
364.383
366.328
368.125
369.771
371.263
372.6
373.782
374.811
375.695
376.432
377.037
377.499
377.84
378.042
378.129
378.085
377.927
377.636
377.234
376.692
376.035
375.239
374.33
373.258
372.08
370.728
369.236
367.603
365.787
363.827
361.692
359.373
356.879
354.19
351.299
348.206
344.883
341.34
337.547
333.507
329.217
324.63
319.798
314.641
309.19
303.416
297.3
290.84
284.004
276.797
269.179
261.159
252.696
243.795
234.424
224.571
214.216
203.346
191.924
179.977
167.421
154.269
140.597
126.414
111.655
96.2902
80.29
63.6293
46.3208
28.3133
9.6253
-9.78214
-29.8899
-50.7576
-72.2868
-94.6993
-117.491
-141.714
-165.148
-191.705
-215.434
-243.976
-271.855
-295.985
-332.285
-348.537
204.672
207.611
211.449
216.172
221.648
227.756
234.337
241.237
248.306
255.42
262.473
269.389
276.111
282.604
288.847
294.83
300.547
305.998
311.183
316.103
320.757
325.151
329.29
333.186
336.854
340.311
343.576
346.667
349.598
352.381
355.024
357.53
359.902
362.138
364.234
366.185
367.988
369.639
371.137
372.481
373.67
374.706
375.597
376.342
376.954
377.423
377.771
377.98
378.073
378.036
377.883
377.599
377.201
376.665
376.013
375.221
374.317
373.248
372.073
370.726
369.237
367.607
365.795
363.838
361.707
359.391
356.9
354.214
351.325
348.235
344.915
341.375
337.585
333.548
329.261
324.677
319.847
314.693
309.245
303.474
297.361
290.904
284.07
276.866
269.251
261.234
252.774
243.876
234.508
224.657
214.306
203.439
192.02
180.075
167.522
154.372
140.703
126.522
111.766
96.4036
80.4062
63.7483
46.4425
28.4378
9.75247
-9.65222
-29.7573
-50.6224
-72.1489
-94.5595
-117.348
-141.572
-165
-191.558
-215.279
-243.817
-271.712
-295.826
-332.183
-348.545
214.861
217.435
220.705
224.687
229.306
234.491
240.139
246.137
252.372
258.735
265.133
271.488
277.74
283.844
289.77
295.495
301.005
306.29
311.343
316.157
320.73
325.061
329.155
333.02
336.669
340.116
343.378
346.47
349.406
352.194
354.843
357.356
359.734
361.975
364.076
366.032
367.84
369.497
371.001
372.35
373.546
374.589
375.488
376.241
376.86
377.337
377.692
377.909
378.008
377.978
377.831
377.554
377.161
376.632
375.984
375.197
374.298
373.233
372.062
370.719
369.234
367.608
365.8
363.847
361.718
359.407
356.918
354.236
351.351
348.263
344.946
341.409
337.623
333.589
329.306
324.726
319.898
314.747
309.302
303.534
297.424
290.97
284.14
276.939
269.326
261.312
252.856
243.961
234.595
224.748
214.4
203.536
192.12
180.179
167.628
154.48
140.813
126.635
111.882
96.5231
80.5287
63.8739
46.5709
28.5693
9.88687
-9.51486
-29.6171
-50.4793
-72.003
-94.4114
-117.197
-141.42
-164.844
-191.402
-215.114
-243.648
-271.561
-295.658
-332.075
-348.555
224.082
226.384
229.229
232.647
236.594
241.035
245.904
251.124
256.612
262.281
268.053
273.856
279.63
285.328
290.913
296.354
301.629
306.722
311.617
316.304
320.776
325.029
329.064
332.886
336.506
339.935
343.188
346.277
349.213
352.004
354.658
357.175
359.558
361.803
363.907
365.867
367.679
369.341
370.85
372.206
373.409
374.459
375.366
376.126
376.754
377.239
377.601
377.826
377.933
377.911
377.77
377.501
377.113
376.592
375.948
375.167
374.273
373.212
372.046
370.707
369.227
367.605
365.801
363.852
361.727
359.42
356.934
354.256
351.374
348.29
344.977
341.443
337.661
333.63
329.35
324.774
319.949
314.803
309.361
303.596
297.489
291.038
284.211
277.014
269.404
261.394
252.941
244.049
234.687
224.843
214.498
203.638
192.225
180.288
167.74
154.594
140.929
126.755
112.005
96.649
80.6578
64.0063
46.7063
28.7082
10.0288
-9.36978
-29.469
-50.3281
-71.8487
-94.2548
-117.038
-141.26
-164.68
-191.236
-214.94
-243.468
-271.401
-295.481
-331.962
-348.567
232.453
234.545
237.067
240.05
243.471
247.314
251.54
256.1
260.933
265.976
271.165
276.438
281.742
287.028
292.257
297.395
302.413
307.29
312.006
316.545
320.897
325.055
329.017
332.784
336.365
339.768
343.005
346.085
349.017
351.809
354.463
356.983
359.368
361.616
363.723
365.686
367.502
369.168
370.683
372.044
373.254
374.312
375.227
375.995
376.631
377.125
377.496
377.729
377.844
377.831
377.696
377.436
377.053
376.542
375.903
375.128
374.239
373.184
372.022
370.689
369.213
367.596
365.797
363.852
361.731
359.428
356.947
354.272
351.395
348.314
345.005
341.474
337.697
333.67
329.394
324.823
320.001
314.858
309.42
303.658
297.556
291.108
284.285
277.091
269.485
261.478
253.029
244.141
234.783
224.942
214.601
203.745
192.336
180.403
167.857
154.712
141.05
126.88
112.134
96.7813
80.7936
64.1458
46.849
28.8546
10.1784
-9.21664
-29.3126
-50.1683
-71.6859
-94.0893
-116.87
-141.091
-164.507
-191.06
-214.756
-243.278
-271.232
-295.297
-331.843
-348.581
240.075
242.001
244.273
246.918
249.925
253.288
256.986
260.99
265.259
269.747
274.404
279.182
284.032
288.911
293.779
298.601
303.346
307.989
312.506
316.878
321.093
325.14
329.013
332.714
336.246
339.615
342.828
345.894
348.818
351.605
354.257
356.777
359.163
361.412
363.521
365.486
367.304
368.975
370.494
371.862
373.078
374.144
375.067
375.845
376.49
376.993
377.373
377.616
377.738
377.735
377.608
377.359
376.981
376.48
375.846
375.078
374.195
373.146
371.989
370.662
369.192
367.579
365.786
363.846
361.729
359.432
356.955
354.285
351.411
348.335
345.03
341.503
337.731
333.708
329.437
324.871
320.052
314.914
309.48
303.722
297.624
291.18
284.36
277.171
269.569
261.566
253.121
244.236
234.882
225.045
214.709
203.856
192.451
180.522
167.98
154.837
141.177
127.01
112.269
96.9203
80.9364
64.2924
46.9992
29.0087
10.3361
-9.05527
-29.1478
-49.9999
-71.514
-93.9146
-116.692
-140.912
-164.325
-190.873
-214.563
-243.075
-271.055
-295.102
-331.717
-348.597
247.037
248.827
250.903
253.283
255.96
258.936
262.203
265.743
269.53
273.532
277.713
282.035
286.457
290.941
295.451
299.952
304.414
308.808
313.11
317.3
321.361
325.282
329.055
332.677
336.149
339.474
342.656
345.701
348.611
351.389
354.037
356.554
358.938
361.186
363.295
365.261
367.082
368.756
370.28
371.654
372.877
373.951
374.884
375.671
376.326
376.839
377.229
377.483
377.614
377.622
377.502
377.264
376.894
376.403
375.776
375.015
374.139
373.096
371.946
370.625
369.161
367.554
365.767
363.832
361.72
359.429
356.957
354.292
351.423
348.352
345.052
341.529
337.762
333.745
329.478
324.917
320.102
314.969
309.539
303.786
297.692
291.253
284.437
277.252
269.655
261.655
253.215
244.334
234.985
225.152
214.82
203.972
192.571
180.647
168.109
154.966
141.309
127.147
112.411
97.0659
81.0862
64.4465
47.1569
29.1708
10.502
-8.88543
-28.974
-49.8221
-71.3332
-93.7302
-116.505
-140.722
-164.135
-190.675
-214.358
-242.862
-270.867
-294.902
-331.585
-348.614
253.42
255.099
257.016
259.182
261.594
264.257
267.17
270.322
273.7
277.281
281.039
284.947
288.971
293.08
297.241
301.423
305.596
309.734
313.81
317.805
321.699
325.481
329.141
332.672
336.074
339.346
342.489
345.505
348.395
351.159
353.798
356.308
358.688
360.934
363.041
365.008
366.831
368.508
370.037
371.416
372.647
373.73
374.672
375.47
376.135
376.66
377.06
377.325
377.467
377.487
377.376
377.151
376.788
376.31
375.689
374.937
374.068
373.033
371.889
370.575
369.118
367.517
365.737
363.809
361.703
359.418
356.951
354.292
351.429
348.363
345.069
341.55
337.789
333.777
329.516
324.961
320.15
315.023
309.598
303.849
297.761
291.326
284.515
277.335
269.742
261.747
253.312
244.435
235.091
225.263
214.936
204.093
192.696
180.777
168.242
155.101
141.446
127.29
112.559
97.2182
81.2429
64.608
47.3222
29.3409
10.6761
-8.70681
-28.792
-49.6356
-71.1424
-93.5365
-116.309
-140.524
-163.934
-190.465
-214.145
-242.635
-270.671
-294.689
-331.448
-348.637
259.295
260.879
262.663
264.653
266.847
269.254
271.873
274.702
277.731
280.948
284.335
287.871
291.53
295.287
299.115
302.985
306.872
310.749
314.593
318.383
322.102
325.734
329.269
332.699
336.02
339.229
342.325
345.305
348.168
350.913
353.537
356.038
358.41
360.651
362.756
364.721
366.546
368.225
369.759
371.144
372.383
373.475
374.427
375.236
375.913
376.45
376.862
377.141
377.293
377.328
377.225
377.015
376.66
376.195
375.583
374.84
373.98
372.953
371.817
370.511
369.062
367.468
365.696
363.775
361.675
359.398
356.937
354.284
351.427
348.367
345.079
341.566
337.812
333.806
329.55
325.002
320.195
315.075
309.655
303.912
297.829
291.399
284.594
277.418
269.831
261.841
253.411
244.539
235.2
225.377
215.055
204.217
192.826
180.912
168.382
155.241
141.589
127.437
112.713
97.377
81.4067
64.7768
47.4952
29.519
10.8587
-8.52007
-28.5995
-49.4393
-70.9431
-93.3324
-116.103
-140.313
-163.726
-190.243
-213.918
-242.397
-270.463
-294.475
-331.296
-348.654
264.711
266.214
267.883
269.724
271.737
273.929
276.303
278.859
281.593
284.496
287.558
290.761
294.089
297.521
301.035
304.607
308.214
311.834
315.444
319.025
322.56
326.034
329.436
332.756
335.987
339.124
342.163
345.099
347.928
350.648
353.252
355.738
358.099
360.333
362.433
364.396
366.221
367.903
369.441
370.833
372.079
373.181
374.144
374.966
375.654
376.205
376.631
376.924
377.088
377.138
377.046
376.851
376.506
376.056
375.454
374.721
373.871
372.854
371.726
370.43
368.99
367.404
365.64
363.727
361.634
359.365
356.912
354.266
351.416
348.363
345.082
341.574
337.827
333.828
329.579
325.039
320.237
315.124
309.709
303.972
297.895
291.471
284.671
277.502
269.92
261.936
253.512
244.645
235.311
225.493
215.178
204.345
192.96
181.051
168.526
155.387
141.736
127.591
112.874
97.5422
81.5772
64.9529
47.6759
29.7052
11.0494
-8.32328
-28.4011
-49.2337
-70.7328
-93.119
-115.886
-140.095
-163.506
-190.009
-213.686
-242.143
-270.247
-294.245
-331.152
-348.686
269.7
271.132
272.699
274.412
276.271
278.282
280.45
282.775
285.257
287.89
290.666
293.577
296.607
299.742
302.964
306.255
309.594
312.963
316.343
319.715
323.064
326.375
329.637
332.838
335.971
339.027
342
344.884
347.672
350.359
352.938
355.404
357.751
359.974
362.067
364.027
365.851
367.535
369.077
370.475
371.73
372.843
373.817
374.652
375.355
375.92
376.361
376.669
376.847
376.915
376.833
376.656
376.322
375.888
375.298
374.577
373.737
372.732
371.614
370.327
368.898
367.321
365.566
363.664
361.578
359.319
356.873
354.235
351.393
348.348
345.074
341.573
337.835
333.843
329.601
325.07
320.273
315.168
309.76
304.029
297.959
291.541
284.748
277.585
270.009
262.031
253.613
244.752
235.424
225.613
215.304
204.477
193.098
181.194
168.676
155.536
141.888
127.748
113.039
97.7135
81.7543
65.1362
47.8637
29.8992
11.2489
-8.12037
-28.1884
-49.0197
-70.5142
-92.8953
-115.661
-139.863
-163.281
-189.764
-213.435
-241.881
-270.019
-294.016
-330.976
-348.703
274.272
275.64
277.118
278.72
280.448
282.307
284.3
286.43
288.695
291.095
293.625
296.277
299.042
301.909
304.865
307.894
310.982
314.112
317.269
320.436
323.6
326.746
329.863
332.94
335.966
338.934
341.834
344.657
347.396
350.043
352.591
355.032
357.36
359.569
361.653
363.608
365.429
367.114
368.66
370.065
371.328
372.453
373.439
374.29
375.007
375.589
376.046
376.371
376.564
376.651
376.581
376.425
376.103
375.686
375.111
374.403
373.574
372.582
371.476
370.2
368.783
367.216
365.472
363.58
361.503
359.255
356.818
354.19
351.356
348.319
345.055
341.561
337.832
333.849
329.614
325.092
320.302
315.206
309.805
304.082
298.019
291.608
284.822
277.665
270.097
262.125
253.714
244.86
235.538
225.733
215.431
204.611
193.238
181.341
168.83
155.69
142.043
127.911
113.21
97.8904
81.9376
65.3262
48.0589
30.1008
11.4552
-7.90528
-27.9745
-48.7941
-70.2854
-92.6615
-115.425
-139.624
-163.042
-189.507
-213.183
-241.599
-269.781
-293.777
-330.826
-348.743
278.435
279.742
281.143
282.652
284.268
285.997
287.841
289.804
291.886
294.086
296.401
298.828
301.359
303.987
306.702
309.493
312.348
315.255
318.199
321.169
324.151
327.134
330.105
333.053
335.968
338.84
341.658
344.413
347.096
349.696
352.206
354.617
356.921
359.112
361.184
363.131
364.949
366.634
368.183
369.595
370.868
372.004
373.004
373.87
374.604
375.204
375.679
376.023
376.233
376.34
376.285
376.149
375.843
375.443
374.888
374.193
373.378
372.4
371.307
370.045
368.641
367.086
365.353
363.474
361.407
359.171
356.744
354.126
351.302
348.276
345.021
341.536
337.816
333.844
329.617
325.105
320.323
315.236
309.843
304.128
298.074
291.67
284.891
277.743
270.182
262.217
253.814
244.966
235.652
225.854
215.559
204.746
193.382
181.49
168.988
155.848
142.201
128.076
113.385
98.0725
82.1265
65.5222
48.2605
30.3097
11.6709
-7.68688
-27.7431
-48.5636
-70.047
-92.4201
-115.177
-139.376
-162.797
-189.237
-212.914
-241.315
-269.531
-293.529
-330.633
-348.765
282.198
283.449
284.784
286.211
287.731
289.349
291.067
292.888
294.812
296.84
298.97
301.201
303.527
305.944
308.444
311.021
313.664
316.364
319.11
321.893
324.701
327.523
330.348
333.166
335.965
338.736
341.467
344.146
346.765
349.311
351.777
354.152
356.428
358.597
360.653
362.59
364.403
366.087
367.639
369.056
370.339
371.488
372.503
373.386
374.138
374.757
375.253
375.618
375.846
375.976
375.937
375.824
375.534
375.151
374.623
373.941
373.141
372.181
371.103
369.855
368.467
366.925
365.206
363.341
361.286
359.063
356.648
354.041
351.228
348.213
344.97
341.494
337.785
333.823
329.606
325.106
320.332
315.256
309.872
304.166
298.121
291.726
284.955
277.815
270.263
262.305
253.911
245.071
235.765
225.974
215.688
204.882
193.527
181.641
169.151
156.009
142.361
128.244
113.564
98.2588
82.3202
65.7242
48.468
30.5248
11.8915
-7.45626
-27.5125
-48.32
-69.8014
-92.1657
-114.926
-139.11
-162.545
-188.96
-212.633
-241.008
-269.274
-293.291
-330.456
-348.799
285.583
286.781
288.057
289.413
290.849
292.371
293.979
295.677
297.465
299.344
301.315
303.375
305.523
307.754
310.065
312.45
314.902
317.414
319.978
322.586
325.228
327.895
330.578
333.265
335.946
338.612
341.25
343.848
346.395
348.882
351.297
353.63
355.872
358.016
360.053
361.977
363.782
365.463
367.017
368.441
369.734
370.896
371.927
372.829
373.6
374.24
374.758
375.146
375.396
375.549
375.529
375.44
375.17
374.809
374.303
373.641
372.859
371.918
370.857
369.626
368.255
366.729
365.025
363.176
361.134
358.926
356.524
353.931
351.129
348.127
344.897
341.432
337.735
333.786
329.58
325.092
320.327
315.263
309.889
304.193
298.158
291.773
285.012
277.88
270.338
262.389
254.003
245.172
235.874
226.092
215.814
205.017
193.672
181.792
169.314
156.172
142.522
128.413
113.745
98.4484
82.518
65.9303
48.6816
30.7464
12.1206
-7.22209
-27.2686
-48.0724
-69.5456
-91.9083
-114.654
-138.854
-162.271
-188.669
-212.358
-240.697
-268.994
-293.029
-330.283
-348.844
288.621
289.768
290.988
292.278
293.639
295.074
296.585
298.174
299.844
301.594
303.426
305.338
307.33
309.399
311.543
313.758
316.039
318.382
320.78
323.226
325.712
328.232
330.776
333.334
335.897
338.455
340.995
343.507
345.978
348.399
350.757
353.043
355.247
357.36
359.374
361.282
363.077
364.754
366.309
367.739
369.042
370.218
371.266
372.188
372.981
373.644
374.186
374.598
374.872
375.051
375.054
374.99
374.742
374.406
373.923
373.284
372.522
371.603
370.563
369.35
367.999
366.49
364.803
362.973
360.946
358.755
356.368
353.79
351.002
348.014
344.799
341.346
337.663
333.727
329.533
325.059
320.305
315.254
309.892
304.207
298.183
291.808
285.058
277.936
270.404
262.464
254.09
245.267
235.979
226.206
215.938
205.15
193.815
181.941
169.479
156.338
142.684
128.581
113.928
98.64
82.7182
66.1403
48.8972
30.9715
12.3529
-6.98159
-27.0191
-47.8169
-69.2835
-91.6379
-114.39
-138.56
-162.016
-188.371
-212.042
-240.384
-268.721
-292.789
-330.044
-348.859
291.336
292.434
293.599
294.826
296.115
297.471
298.894
300.387
301.952
303.588
305.298
307.081
308.936
310.864
312.861
314.926
317.055
319.245
321.492
323.789
326.131
328.511
330.922
333.355
335.801
338.25
340.69
343.111
345.502
347.851
350.148
352.381
354.542
356.62
358.608
360.496
362.279
363.95
365.505
366.94
368.254
369.444
370.51
371.452
372.269
372.956
373.525
373.962
374.266
374.469
374.5
374.462
374.24
373.931
373.475
372.861
372.123
371.229
370.212
369.019
367.692
366.202
364.536
362.725
360.717
358.544
356.174
353.613
350.84
347.869
344.67
341.232
337.563
333.643
329.463
325.004
320.263
315.226
309.876
304.204
298.192
291.829
285.09
277.979
270.46
262.531
254.166
245.354
236.076
226.314
216.056
205.277
193.955
182.087
169.643
156.504
142.843
128.748
114.108
98.832
82.9192
66.3519
49.1175
31.2013
12.5906
-6.7338
-26.7704
-47.5531
-69.0165
-91.3641
-114.104
-138.295
-161.713
-188.07
-211.763
-240.034
-268.416
-292.534
-329.922
-348.93
293.738
294.79
295.9
297.066
298.289
299.571
300.914
302.32
303.79
305.326
306.928
308.597
310.333
312.135
314.003
315.935
317.929
319.983
322.092
324.253
326.461
328.711
330.995
333.307
335.638
337.978
340.317
342.645
344.952
347.226
349.457
351.634
353.746
355.786
357.742
359.608
361.376
363.039
364.592
366.032
367.356
368.562
369.647
370.611
371.452
372.166
372.763
373.229
373.564
373.794
373.858
373.846
373.654
373.374
372.947
372.361
371.652
370.784
369.795
368.625
367.325
365.857
364.214
362.425
360.438
358.286
355.935
353.395
350.638
347.686
344.505
341.083
337.432
333.528
329.363
324.921
320.195
315.173
309.839
304.18
298.182
291.832
285.107
278.008
270.5
262.582
254.23
245.43
236.163
226.412
216.166
205.398
194.09
182.228
169.802
156.669
142.999
128.909
114.286
99.0219
83.1213
66.5648
49.3381
31.4315
12.8302
-6.48848
-26.5062
-47.291
-68.7408
-91.0863
-113.822
-137.991
-161.45
-187.75
-211.425
-239.733
-268.112
-292.286
-329.631
-348.936
295.823
296.831
297.889
298.997
300.158
301.373
302.643
303.971
305.357
306.803
308.31
309.879
311.509
313.201
314.955
316.769
318.642
320.573
322.558
324.595
326.679
328.807
330.971
333.167
335.386
337.619
339.858
342.092
344.312
346.508
348.67
350.786
352.847
354.844
356.767
358.607
360.356
362.009
363.56
365.004
366.338
367.559
368.663
369.65
370.518
371.26
371.888
372.383
372.754
373.012
373.114
373.13
372.971
372.723
372.327
371.774
371.096
370.258
369.301
368.156
366.888
365.443
363.829
362.064
360.101
357.972
355.643
353.126
350.389
347.457
344.298
340.894
337.262
333.377
329.23
324.806
320.097
315.092
309.774
304.131
298.148
291.812
285.1
278.015
270.524
262.619
254.279
245.49
236.236
226.498
216.264
205.508
194.214
182.361
169.953
156.832
143.151
129.064
114.46
99.2079
83.3152
66.7741
49.5552
31.6622
13.069
-6.23528
-26.2557
-47.0198
-68.4684
-90.8002
-113.535
-137.705
-161.142
-187.449
-211.125
-239.359
-267.801
-292.049
-329.517
-349.015
297.58
298.546
299.556
300.612
301.717
302.871
304.076
305.334
306.645
308.012
309.435
310.914
312.451
314.046
315.698
317.407
319.173
320.993
322.866
324.789
326.759
328.773
330.826
332.91
335.021
337.15
339.289
341.431
343.564
345.681
347.771
349.824
351.83
353.781
355.666
357.478
359.208
360.849
362.395
363.842
365.186
366.421
367.546
368.557
369.452
370.225
370.885
371.413
371.822
372.11
372.254
372.3
372.179
371.964
371.604
371.084
370.443
369.638
368.719
367.601
366.371
364.95
363.37
361.632
359.697
357.594
355.29
352.798
350.084
347.176
344.04
340.657
337.046
333.183
329.055
324.652
319.962
314.976
309.676
304.05
298.084
291.765
285.072
278.001
270.524
262.633
254.307
245.533
236.292
226.568
216.348
205.604
194.327
182.483
170.092
156.988
143.295
129.209
114.619
99.3897
83.5106
66.9757
49.7697
31.8868
13.3068
-5.99169
-25.9913
-46.7542
-68.1886
-90.5205
-113.237
-137.413
-160.853
-187.119
-210.798
-239.053
-267.465
-291.807
-329.255
-349.045
299.001
299.927
300.894
301.904
302.958
304.058
305.205
306.401
307.646
308.942
310.29
311.691
313.145
314.653
316.215
317.83
319.498
321.219
322.989
324.809
326.675
328.583
330.529
332.509
334.517
336.546
338.589
340.639
342.686