/*--------------------------------*- C++ -*----------------------------------*\
| =========                 |                                                 |
| \\      /  F ield         | OpenFOAM: The Open Source CFD Toolbox           |
|  \\    /   O peration     | Version:  2412                                  |
|   \\  /    A nd           | Website:  www.openfoam.com                      |
|    \\/     M anipulation  |                                                 |
\*---------------------------------------------------------------------------*/
FoamFile
{
    version     2.0;
    format      ascii;
    arch        "LSB;label=32;scalar=64";
    class       surfaceScalarField;
    location    "0.01";
    object      phi_0;
}
// * * * * * * * * * * * * * * * * * * * * * * * * * * * * * * * * * * * * * //

dimensions      [0 3 -1 0 0 0 0];

oriented        oriented;

internalField   nonuniform List<scalar> 
24930
(
-0.0073175
-0.00522848
0.0125236
-0.00535373
-0.0019638
-0.00430772
-0.00104603
-0.00364344
-0.000664276
-0.00317023
-0.000473201
-0.00281036
-0.000359844
-0.00252359
-0.000286756
-0.0022878
-0.000235778
-0.00208931
-0.000198488
-0.00191919
-0.000170141
-0.00177124
-0.000147975
-0.00164103
-0.000130236
-0.00152528
-0.000115772
-0.00142151
-0.000103792
-0.00132778
-9.3736e-05
-0.00124259
-8.52011e-05
-0.0011647
-7.78861e-05
-0.00109315
-7.15632e-05
-0.0010271
-6.60566e-05
-0.000965888
-6.12284e-05
-0.000908938
-5.69691e-05
-0.000855768
-5.31903e-05
-0.000805969
-4.98206e-05
-0.000759186
-4.68013e-05
-0.000715117
-4.40837e-05
-0.000673498
-4.16275e-05
-0.000634101
-3.93999e-05
-0.000596722
-3.73745e-05
-0.000561181
-3.55309e-05
-0.000527314
-3.38538e-05
-0.000494966
-3.23316e-05
-0.000463998
-3.09535e-05
-0.000434278
-2.97068e-05
-0.00040569
-2.85776e-05
-0.000378131
-2.75508e-05
-0.00035151
-2.66142e-05
-0.000325743
-2.576e-05
-0.000300758
-2.498e-05
-0.000276483
-2.42729e-05
-0.000252837
-2.36462e-05
-0.000229757
-2.30844e-05
-0.000207215
-2.25455e-05
-0.000185172
-2.20476e-05
-0.000163607
-2.15684e-05
-0.000142325
-2.12863e-05
-0.000121442
-2.08872e-05
-0.000100699
-2.07469e-05
-8.01545e-05
-2.05476e-05
-5.95222e-05
-2.06349e-05
-3.90148e-05
-2.051e-05
-1.82246e-05
-2.07927e-05
2.42804e-06
-2.06544e-05
2.33465e-05
-2.09198e-05
4.40665e-05
-2.07213e-05
6.51637e-05
-2.10971e-05
8.62774e-05
-2.11141e-05
0.000107989
-2.17138e-05
0.000130105
-2.21166e-05
0.000152868
-2.2763e-05
0.000176241
-2.3374e-05
0.000200192
-2.39505e-05
0.000224816
-2.46214e-05
0.000250106
-2.52922e-05
0.000276256
-2.61496e-05
0.00030328
-2.70217e-05
0.000331404
-2.81276e-05
0.000360449
-2.90415e-05
0.000390871
-3.04203e-05
0.0004227
-3.18328e-05
0.000455729
-3.30254e-05
0.00049056
-3.48324e-05
0.000526749
-3.61902e-05
0.000564394
-3.76419e-05
0.000603881
-3.94891e-05
0.000645031
-4.11482e-05
0.000688223
-4.31924e-05
0.00073399
-4.57668e-05
0.000782029
-4.80386e-05
0.000832823
-5.07945e-05
0.000886655
-5.38306e-05
0.000943273
-5.66191e-05
0.00100336
-6.00862e-05
0.00106695
-6.35929e-05
0.00113426
-6.73089e-05
0.00120602
-7.17593e-05
0.00128193
-7.59077e-05
0.00136273
-8.07966e-05
0.00144869
-8.5968e-05
0.00154015
-9.14573e-05
0.00163759
-9.74436e-05
0.00174126
-0.00010366
0.00185222
-0.000110961
0.00197037
-0.000118149
0.0020969
-0.000126533
0.00223195
-0.000135055
0.0023749
-0.000142943
0.00252701
-0.000152113
0.00269067
-0.000163662
0.00286644
-0.000175767
0.0030551
-0.000188658
0.00325778
-0.000202681
0.00347514
-0.000217358
0.00370861
-0.000233469
0.0039597
-0.000251094
0.00422951
-0.000269814
0.00451969
-0.000290176
0.00483206
-0.000312375
0.00516797
-0.000335905
0.0055297
-0.000361729
0.00591869
-0.000388994
0.00633846
-0.00041977
0.0067881
-0.000449633
0.00727668
-0.000488588
0.00779793
-0.000521244
0.00837099
-0.000573059
0.00899228
-0.00062129
0.00963325
-0.00064097
0.0103705
-0.00073729
0.0109349
-0.000564357
-0.0004197
-0.0167489
-0.00839918
0.0199196
-0.0139157
-0.00479709
-0.0118315
-0.00313022
-0.0103066
-0.00218919
-0.00913942
-0.00164031
-0.00821163
-0.0012876
-0.00745116
-0.0010472
-0.00681279
-0.000874163
-0.00626661
-0.000744693
-0.00579213
-0.000644661
-0.00537475
-0.000565406
-0.00500373
-0.000501291
-0.00467101
-0.000448526
-0.00437035
-0.000404469
-0.00409687
-0.000367229
-0.00384666
-0.000335417
-0.00361657
-0.000307993
-0.003404
-0.00028416
-0.00320678
-0.000263301
-0.00302312
-0.000244926
-0.00285148
-0.000228647
-0.00269056
-0.000214147
-0.00253925
-0.00020117
-0.00239658
-0.000189503
-0.00226171
-0.000178969
-0.00213392
-0.000169424
-0.00201256
-0.000160745
-0.00189708
-0.000152838
-0.00178696
-0.000145627
-0.00168173
-0.000139056
-0.00158095
-0.000133082
-0.00148421
-0.000127664
-0.00139114
-0.000122758
-0.00130139
-0.000118308
-0.00121466
-0.000114261
-0.00113069
-0.00011057
-0.00104924
-0.000107204
-0.000970083
-0.00010413
-0.000893018
-0.000101339
-0.0008178
-9.88703e-05
-0.000744252
-9.66407e-05
-0.000672255
-9.45515e-05
-0.000601765
-9.25461e-05
-0.000532609
-9.07323e-05
-0.000464365
-8.95384e-05
-0.000397156
-8.81043e-05
-0.000330452
-8.74581e-05
-0.00026415
-8.6856e-05
-0.000197654
-8.71367e-05
-0.000131304
-8.68645e-05
-6.41707e-05
-8.79301e-05
2.88987e-06
-8.77181e-05
7.04583e-05
-8.84896e-05
0.000137811
-8.80758e-05
0.000206209
-8.94965e-05
0.000275014
-8.99209e-05
0.000345504
-9.2205e-05
0.000417646
-9.42606e-05
0.000491685
-9.68008e-05
0.000567925
-9.96136e-05
0.000646011
-0.000102037
0.000726324
-0.000104931
0.000808937
-0.000107906
0.000894256
-0.00011147
0.000982593
-0.000115353
0.00107441
-0.000119949
0.00116935
-0.000123978
0.00126878
-0.000129847
0.00137274
-0.0001358
0.00148074
-0.000141014
0.00159452
-0.000148611
0.00171278
-0.000154456
0.0018358
-0.000160658
0.00196482
-0.000168515
0.00209925
-0.000175577
0.00224042
-0.00018436
0.00238989
-0.000195232
0.0025468
-0.000204945
0.00271268
-0.000216678
0.00288842
-0.00022957
0.00307323
-0.000241431
0.00326937
-0.00025622
0.00347685
-0.000271073
0.00369647
-0.000286934
0.00393052
-0.000305809
0.00417806
-0.000323441
0.0044415
-0.000344236
0.00472172
-0.000366191
0.00501975
-0.000389488
0.0053372
-0.000414897
0.00567486
-0.000441314
0.00603605
-0.00047215
0.00642079
-0.00050289
0.00683232
-0.000538067
0.00727181
-0.000574538
0.0077374
-0.000608541
0.00823293
-0.000647639
0.0087654
-0.000696134
0.00933685
-0.000747209
0.00994987
-0.000801678
0.0106081
-0.00086091
0.0113137
-0.000922927
0.0120711
-0.000990923
0.0128853
-0.00106531
0.0137596
-0.00114412
0.0146995
-0.00123003
0.0157104
-0.00132328
0.0167971
-0.00142262
0.0179656
-0.00153017
0.0192238
-0.00164725
0.0205748
-0.00177073
0.0220337
-0.00190857
0.023593
-0.00204786
0.0252943
-0.00222254
0.027103
-0.00238179
0.0291141
-0.00263238
0.0311937
-0.00272059
0.0334847
-0.00302831
0.0355429
-0.00262252
-0.00206941
-0.0232257
-0.0106311
0.0254576
-0.0205624
-0.00746046
-0.0182405
-0.00545213
-0.0163191
-0.00411049
-0.0147386
-0.00322076
-0.0134213
-0.00260493
-0.0123058
-0.00216263
-0.0113466
-0.00183335
-0.0105106
-0.00158075
-0.00977334
-0.00138196
-0.00911663
-0.00122215
-0.00852662
-0.00109134
-0.00799256
-0.000982605
-0.007506
-0.000891046
-0.00706016
-0.000813076
-0.00664955
-0.000746032
-0.00626966
-0.000687892
-0.00591675
-0.000637095
-0.00558766
-0.000592418
-0.00527973
-0.000552889
-0.00499069
-0.000517726
-0.00471858
-0.000486292
-0.00446172
-0.000458064
-0.00421865
-0.000432607
-0.00398807
-0.000409558
-0.00376889
-0.000388615
-0.00356009
-0.000369528
-0.00336082
-0.000352096
-0.00317025
-0.000336165
-0.00298766
-0.000321619
-0.00281234
-0.000308369
-0.00264364
-0.000296336
-0.00248095
-0.000285424
-0.00232371
-0.000275523
-0.00217144
-0.000266514
-0.0020237
-0.000258296
-0.0018801
-0.000250801
-0.00174027
-0.000243954
-0.00160388
-0.000237735
-0.00147051
-0.000232245
-0.00133989
-0.000227272
-0.00121178
-0.000222672
-0.00108617
-0.000218159
-0.000962692
-0.000214221
-0.000840754
-0.000211486
-0.00072039
-0.000208477
-0.000600884
-0.000206971
-0.000481859
-0.000205889
-0.000362484
-0.000206517
-0.000243148
-0.000206205
-0.00012244
-0.000208643
-1.70984e-06
-0.000208452
0.000120125
-0.000210326
0.000241761
-0.000209714
0.000365206
-0.000212944
0.000489694
-0.00021441
0.00061704
-0.000219552
0.000747656
-0.000224879
0.000881553
-0.000230696
0.00101962
-0.000237677
0.00116101
-0.000243433
0.00130648
-0.000250396
0.00145623
-0.00025766
0.0016108
-0.000266039
0.00177097
-0.000275513
0.00193735
-0.000286332
0.00210946
-0.000296088
0.00228969
-0.000310072
0.00247804
-0.000324155
0.00267375
-0.000336721
0.00287984
-0.000354696
0.00309406
-0.000368686
0.00331689
-0.000383474
0.00355052
-0.000402149
0.00379389
-0.000418949
0.00404944
-0.000439905
0.00431983
-0.000465629
0.00460365
-0.00048876
0.00490357
-0.000516601
0.0052212
-0.000547191
0.00555509
-0.000575324
0.00590932
-0.00061045
0.00628386
-0.00064561
0.00668017
-0.000683247
0.00710229
-0.000727929
0.00754852
-0.000769671
0.0080232
-0.000818909
0.00852783
-0.000870827
0.00906422
-0.000925873
0.00963524
-0.000985919
0.0102422
-0.00104829
0.010891
-0.0011209
0.0115818
-0.00119369
0.0123198
-0.00127605
0.0131078
-0.0013626
0.013943
-0.00144372
0.0148313
-0.00153595
0.0157844
-0.0016492
0.0168059
-0.00176874
0.0179005
-0.00189626
0.0190744
-0.00203487
0.0203314
-0.00217989
0.0216791
-0.0023386
0.0231259
-0.00251207
0.0246771
-0.0026954
0.0263423
-0.00289524
0.0281305
-0.00311143
0.0300498
-0.00334189
0.0321091
-0.00358951
0.0343243
-0.00386246
0.0366941
-0.00414055
0.0392575
-0.00447194
0.0419723
-0.00476263
0.0449593
-0.00520962
0.0480737
-0.00549617
0.0515803
-0.00613894
0.0551868
-0.00632711
0.0590866
-0.00692811
0.0628891
-0.00642499
-0.00516769
-0.0278601
-0.0122109
0.0294399
-0.0257074
-0.00961319
-0.0235556
-0.0076039
-0.0215798
-0.00608626
-0.0198342
-0.00496631
-0.0183045
-0.00413465
-0.0169618
-0.00350526
-0.0157757
-0.00301945
-0.01472
-0.00263646
-0.0137732
-0.00232883
-0.0129179
-0.00207746
-0.0121403
-0.00186897
-0.0114291
-0.00169379
-0.0107753
-0.00154489
-0.0101713
-0.00141707
-0.00961097
-0.00130637
-0.0090891
-0.00120977
-0.00860132
-0.00112489
-0.00814391
-0.00104985
-0.00771369
-0.000983146
-0.0073079
-0.000923556
-0.00692415
-0.000870077
-0.00656037
-0.00082188
-0.00621473
-0.000778272
-0.00588563
-0.000738668
-0.00557167
-0.00070258
-0.00527158
-0.000669603
-0.00498425
-0.000639412
-0.00470863
-0.000611756
-0.00444376
-0.000586451
-0.00418874
-0.000563359
-0.00394269
-0.000542355
-0.00370481
-0.000523287
-0.00347434
-0.000505972
-0.00325063
-0.00049021
-0.00303308
-0.000475826
-0.00282117
-0.000462706
-0.0026144
-0.000450719
-0.0024123
-0.000439836
-0.00221431
-0.000430244
-0.00202005
-0.000421546
-0.00182916
-0.000413563
-0.00164171
-0.000405622
-0.00145708
-0.000398861
-0.00127454
-0.000394036
-0.00109403
-0.000389
-0.000914627
-0.000386378
-0.000735687
-0.000384836
-0.000556116
-0.000386095
-0.000376385
-0.000385941
-0.000194516
-0.000390517
-1.26062e-05
-0.000390365
0.000171534
-0.000394467
0.000355436
-0.000393618
0.00054212
-0.00039963
0.00073065
-0.000402941
0.000923399
-0.000412303
0.00112131
-0.000422797
0.00132411
-0.000433486
0.00153335
-0.000446921
0.00174767
-0.000457753
0.0019682
-0.000470922
0.00219533
-0.000484785
0.00242966
-0.00050038
0.00267256
-0.000518402
0.00292479
-0.000538562
0.00318572
-0.000557022
0.00345886
-0.000583209
0.00374418
-0.00060948
0.00404063
-0.000633162
0.00435261
-0.000666678
0.00467691
-0.000692988
0.00501413
-0.000720689
0.00536756
-0.000755581
0.00573563
-0.000787013
0.00612191
-0.000826186
0.00653035
-0.000874067
0.00695889
-0.000917296
0.00741142
-0.000969137
0.00789039
-0.00102616
0.0083936
-0.00107854
0.00892711
-0.00114395
0.00949083
-0.00120933
0.0100869
-0.00127927
0.0107212
-0.00136227
0.0113913
-0.00143974
0.0121034
-0.00153106
0.0128599
-0.00162728
0.0136632
-0.00172914
0.0145175
-0.00184027
0.0154247
-0.00195544
0.0163931
-0.00208935
0.0174234
-0.00222394
0.0185222
-0.00237494
0.019695
-0.00253533
0.0209377
-0.00268643
0.0222578
-0.00285607
0.0236712
-0.00306257
0.0251832
-0.00328077
0.0268003
-0.0035134
0.0285315
-0.00376606
0.0303817
-0.00403003
0.0323612
-0.00431811
0.0344816
-0.00463249
0.03675
-0.00496375
0.039179
-0.00532422
0.0417805
-0.00571299
0.0445653
-0.00612666
0.0475443
-0.00656853
0.0507399
-0.00705806
0.0541451
-0.00754575
0.0578221
-0.00814889
0.0616884
-0.00862898
0.065951
-0.00947224
0.0703307
-0.00987589
0.075292
-0.0111002
0.0803491
-0.0113842
0.0857556
-0.0123346
0.0913019
-0.0119713
-0.00979408
-0.0313747
-0.0132994
0.0324632
-0.0297489
-0.011239
-0.0279247
-0.00942805
-0.0260971
-0.00791376
-0.024369
-0.00669443
-0.0227765
-0.0057271
-0.0213248
-0.00495689
-0.0200048
-0.00433948
-0.0188028
-0.00383843
-0.0177048
-0.00342686
-0.0166978
-0.00308454
-0.0157702
-0.00279652
-0.0149124
-0.00255161
-0.0141159
-0.00234135
-0.0133737
-0.00215928
-0.0126797
-0.0020004
-0.0120287
-0.00186082
-0.0114161
-0.00173743
-0.0108383
-0.00162775
-0.0102917
-0.00152978
-0.00977339
-0.00144186
-0.00928087
-0.00136263
-0.00881182
-0.00129096
-0.00836424
-0.00122588
-0.00793633
-0.00116659
-0.00752652
-0.0011124
-0.00713337
-0.00106274
-0.0067556
-0.00101716
-0.00639202
-0.000975305
-0.00604151
-0.000936928
-0.005703
-0.000901844
-0.00537544
-0.000869881
-0.00505788
-0.000840831
-0.0047494
-0.000814428
-0.00444921
-0.000790381
-0.0041566
-0.000768429
-0.00387089
-0.000748403
-0.0035915
-0.000730108
-0.00331782
-0.000713515
-0.00304916
-0.000698912
-0.00278505
-0.000685668
-0.00252504
-0.000673579
-0.00226923
-0.000661437
-0.0020168
-0.000651304
-0.00176688
-0.000643971
-0.0015193
-0.000636588
-0.00127295
-0.000632732
-0.00102692
-0.000630876
-0.000779816
-0.000633204
-0.00053225
-0.000633513
-0.000281574
-0.000641198
-3.06534e-05
-0.000641289
0.000223693
-0.000648815
0.000477977
-0.000647904
0.000736244
-0.0006579
0.000997334
-0.000664033
0.00126418
-0.00067915
0.00153835
-0.000696965
0.00181919
-0.000714324
0.00210906
-0.000736793
0.002406
-0.000754694
0.00271155
-0.000776474
0.00302632
-0.000799552
0.00335096
-0.000825025
0.00368744
-0.00085487
0.00403671
-0.000887834
0.00439798
-0.000918293
0.00477592
-0.000961144
0.0051705
-0.00100406
0.00558031
-0.00104297
0.00601129
-0.00109766
0.00645923
-0.00114093
0.00692482
-0.00118627
0.00741248
-0.00124325
0.00792014
-0.00129467
0.00845247
-0.00135851
0.00901481
-0.00143641
0.00960447
-0.00150695
0.0102265
-0.00159116
0.0108843
-0.00168398
0.0115749
-0.00176912
0.0123063
-0.00187533
0.0130784
-0.00198143
0.0138938
-0.00209469
0.0147607
-0.00222913
0.0156754
-0.00235446
0.0166463
-0.00250195
0.0176763
-0.00265729
0.0187685
-0.00282138
0.0199286
-0.00300042
0.0211586
-0.00318537
0.0224695
-0.00340025
0.023862
-0.00361644
0.0253442
-0.00385715
0.0269241
-0.00411528
0.0285974
-0.00435967
0.0303715
-0.00463019
0.0322657
-0.00495681
0.034287
-0.00530204
0.0364432
-0.00566953
0.0387454
-0.00606828
0.0411993
-0.00648396
0.0438171
-0.00693595
0.0466128
-0.00742811
0.0495938
-0.00794482
0.0527751
-0.00850549
0.0561702
-0.00910812
0.0597908
-0.00974723
0.0636482
-0.0104259
0.0677694
-0.0111793
0.0721395
-0.0119158
0.0768418
-0.0128512
0.0817495
-0.0135366
0.0871562
-0.014879
0.0926357
-0.0153554
0.0988595
-0.017324
0.105139
-0.0176636
0.11178
-0.0189754
0.118825
-0.0190163
-0.015842
-0.0342074
-0.0140302
0.0349382
-0.0330147
-0.0124317
-0.0315457
-0.010897
-0.0299584
-0.00950099
-0.0283604
-0.00829243
-0.0268142
-0.00727329
-0.0253495
-0.00642158
-0.0239769
-0.0057121
-0.0226966
-0.00511869
-0.021504
-0.00461948
-0.0203923
-0.00419626
-0.0193542
-0.00383461
-0.0183827
-0.0035231
-0.0174713
-0.00325276
-0.016614
-0.00301649
-0.0158058
-0.00280867
-0.0150418
-0.00262478
-0.014318
-0.0024612
-0.0136308
-0.00231498
-0.0129769
-0.00218369
-0.0123535
-0.00206532
-0.011758
-0.0019582
-0.0111881
-0.00186091
-0.0106417
-0.00177225
-0.0101171
-0.0016912
-0.00961261
-0.0016169
-0.00912673
-0.00154861
-0.0086581
-0.00148576
-0.00820545
-0.00142792
-0.00776757
-0.00137477
-0.00734329
-0.00132609
-0.00693146
-0.00128168
-0.00653101
-0.00124126
-0.00614092
-0.00120449
-0.0057603
-0.00117099
-0.00538832
-0.00114039
-0.00502423
-0.00111248
-0.00466734
-0.00108699
-0.00431695
-0.00106391
-0.00397223
-0.00104363
-0.00363266
-0.00102525
-0.00329772
-0.00100853
-0.00296754
-0.000991627
-0.00264106
-0.000977791
-0.00231734
-0.00096771
-0.0019961
-0.000957836
-0.00167602
-0.000952815
-0.00135597
-0.000950933
-0.00103425
-0.000954938
-0.000711642
-0.000956125
-0.00038474
-0.000968105
-5.72635e-05
-0.000968769
0.000275058
-0.000981138
0.000607673
-0.00098052
0.000945712
-0.000995942
0.00128773
-0.00100605
0.00163718
-0.00102861
0.00199632
-0.00105611
0.0023641
-0.0010821
0.00274373
-0.00111643
0.00313265
-0.00114361
0.00353282
-0.00117664
0.00394506
-0.00121179
0.00437004
-0.00125001
0.00481036
-0.00129518
0.00526721
-0.00134468
0.00573958
-0.00139067
0.00623331
-0.00145486
0.00674842
-0.00151919
0.00728309
-0.00157763
0.00784484
-0.00165941
0.00842857
-0.00172466
0.00903492
-0.00179261
0.0096695
-0.00187783
0.0103297
-0.0019549
0.0110212
-0.00205002
0.0117509
-0.00216604
0.0125153
-0.00227134
0.0133205
-0.00239642
0.0141712
-0.00253465
0.0150633
-0.00266123
0.0160067
-0.00281878
0.0170016
-0.00297626
0.0180505
-0.00314367
0.0191641
-0.00334263
0.0203374
-0.0035278
0.0215806
-0.00374517
0.0228974
-0.00397406
0.0242912
-0.00421518
0.025769
-0.00447826
0.0273326
-0.00474892
0.0289955
-0.0050632
0.0307586
-0.00537946
0.0326303
-0.00572887
0.0346219
-0.0061069
0.0367289
-0.00646668
0.0389575
-0.00685875
0.0413289
-0.00732823
0.0438512
-0.00782439
0.046533
-0.0083513
0.049387
-0.00892227
0.052419
-0.00951595
0.0556416
-0.0101586
0.0590699
-0.0108564
0.0627111
-0.0115861
0.0665805
-0.0123748
0.0706919
-0.0132195
0.0750563
-0.0141116
0.0796835
-0.0150532
0.0846032
-0.0160989
0.0897904
-0.017103
0.0953472
-0.018408
0.101101
-0.0192902
0.107426
-0.0212047
0.113754
-0.0216831
0.120946
-0.0245158
0.12813
-0.024848
0.135648
-0.0264927
0.143791
-0.0271597
-0.0230673
-0.03661
-0.0145122
0.0370919
-0.0357474
-0.0132942
-0.0346002
-0.0120442
-0.033275
-0.0108261
-0.0318632
-0.00970425
-0.0304321
-0.00870438
-0.029024
-0.00782964
-0.0276635
-0.00707262
-0.0263626
-0.00641964
-0.0251257
-0.00585636
-0.0239529
-0.005369
-0.022842
-0.00494552
-0.0217894
-0.00457569
-0.0207911
-0.00425099
-0.0198432
-0.00396441
-0.0189416
-0.00371018
-0.0180829
-0.00348356
-0.0172634
-0.00328064
-0.0164802
-0.00309819
-0.0157304
-0.00293351
-0.0150115
-0.00278433
-0.014321
-0.00264874
-0.0136568
-0.00252509
-0.0130171
-0.002412
-0.0124
-0.00230826
-0.0118041
-0.00221285
-0.0112278
-0.00212491
-0.0106697
-0.00204377
-0.0101287
-0.00196892
-0.00960344
-0.0019
-0.00909273
-0.00183677
-0.00859539
-0.00177899
-0.00811028
-0.00172635
-0.00763633
-0.00167842
-0.00717257
-0.00163473
-0.00671814
-0.00159481
-0.0062722
-0.00155841
-0.005834
-0.0015252
-0.00540272
-0.00149519
-0.0049775
-0.00146887
-0.00455773
-0.00144503
-0.00414285
-0.00142343
-0.00373302
-0.00140146
-0.00332696
-0.00138386
-0.00292366
-0.00137102
-0.00252279
-0.00135872
-0.00212278
-0.00135283
-0.00172236
-0.00135136
-0.00131947
-0.00135783
-0.000915189
-0.00136041
-0.000505211
-0.00137809
-9.42088e-05
-0.00137978
0.000323308
-0.00139866
0.00074167
-0.00139888
0.00116714
-0.00142141
0.00159789
-0.0014368
0.00203788
-0.0014686
0.00249005
-0.00150828
0.00295294
-0.00154498
0.00343067
-0.00159415
0.00392005
-0.001633
0.00442349
-0.00168007
0.00494202
-0.00173032
0.00547628
-0.00178427
0.00602947
-0.00184837
0.00660307
-0.00191828
0.00719585
-0.00198344
0.00781466
-0.00207367
0.00845976
-0.00216429
0.00912877
-0.00224664
0.0098308
-0.00236143
0.01056
-0.00245391
0.0113169
-0.0025495
0.0121083
-0.00266915
0.012931
-0.00277765
0.0137914
-0.00291042
0.0146979
-0.00307251
0.0156465
-0.00321999
0.0166441
-0.00339404
0.0176965
-0.00358705
0.0187988
-0.00376349
0.0199624
-0.00398236
0.0211876
-0.00420143
0.022477
-0.00443307
0.0238431
-0.00470872
0.0252801
-0.00496489
0.0267995
-0.00526451
0.0284055
-0.00558003
0.0301016
-0.00591137
0.0318962
-0.0062728
0.0337902
-0.00664292
0.0357994
-0.0070724
0.0379244
-0.00750448
0.0401736
-0.00797804
0.0425612
-0.00849451
0.0450834
-0.00898894
0.0477435
-0.00951881
0.0505631
-0.0101478
0.0535511
-0.0108124
0.0567158
-0.011516
0.0600708
-0.0122773
0.0636216
-0.0130667
0.0673799
-0.0139169
0.0713608
-0.0148373
0.0755704
-0.0157957
0.0800229
-0.0168273
0.0847314
-0.017928
0.0897053
-0.0190855
0.0949516
-0.0202995
0.100501
-0.0216486
0.106319
-0.0229211
0.112523
-0.0246119
0.118899
-0.025666
0.125892
-0.0281972
0.13281
-0.0286012
0.140668
-0.0323746
0.148459
-0.0326382
0.156539
-0.0345732
0.165391
-0.0360115
-0.0312048
-0.0387387
-0.0148251
0.0390516
-0.0381196
-0.0139133
-0.0372385
-0.0129252
-0.0361593
-0.0119053
-0.0349495
-0.010914
-0.0336688
-0.00998514
-0.0323617
-0.00913671
-0.0310598
-0.00837455
-0.0297831
-0.00769636
-0.0285435
-0.00709593
-0.0273473
-0.00656515
-0.0261972
-0.00609565
-0.0250933
-0.00567949
-0.0240348
-0.00530954
-0.0230196
-0.00497955
-0.0220456
-0.00468415
-0.0211104
-0.00441878
-0.0202115
-0.00417953
-0.0193466
-0.00396311
-0.0185134
-0.00376671
-0.0177099
-0.00358793
-0.0169339
-0.00342471
-0.0161838
-0.00327528
-0.0154577
-0.00313809
-0.0147541
-0.00301182
-0.0140716
-0.00289532
-0.0134089
-0.00278765
-0.0127646
-0.00268805
-0.0121375
-0.00259597
-0.0115264
-0.00251103
-0.0109302
-0.00243297
-0.0103476
-0.00236155
-0.00977753
-0.00229641
-0.0092189
-0.00223704
-0.00867071
-0.0021829
-0.00813206
-0.00213345
-0.00760208
-0.00208838
-0.00707998
-0.0020473
-0.00656485
-0.00201032
-0.0060558
-0.00197794
-0.0055522
-0.00194864
-0.00505345
-0.00192218
-0.00455972
-0.00189521
-0.00406952
-0.00187408
-0.00358182
-0.00185873
-0.00309624
-0.00184431
-0.002611
-0.00183808
-0.00212474
-0.00183763
-0.00163506
-0.00184753
-0.00114339
-0.00185208
-0.000644429
-0.00187706
-0.000143877
-0.00188033
0.000365094
-0.00190763
0.000875682
-0.00190947
0.00139529
-0.00194102
0.00192159
-0.0019631
0.00245899
-0.002006
0.00301111
-0.00206041
0.00357606
-0.00210993
0.00415888
-0.00217697
0.00475582
-0.00222995
0.00536968
-0.00229393
0.00600168
-0.00236232
0.00665241
-0.00243501
0.00732561
-0.00252155
0.00802308
-0.00261575
0.00874337
-0.00270373
0.00949415
-0.00282444
0.010276
-0.00294619
0.0110861
-0.00305665
0.0119347
-0.0032101
0.0128159
-0.0033351
0.0137296
-0.0034632
0.0146836
-0.00362317
0.0156748
-0.00376878
0.0167094
-0.00394504
0.0177974
-0.00416055
0.0189346
-0.00435718
0.0201281
-0.00458748
0.0213849
-0.00484389
0.0226994
-0.00507794
0.0240839
-0.00536692
0.0255393
-0.00565678
0.0270675
-0.00596131
0.028683
-0.00632418
0.0303791
-0.00666104
0.0321678
-0.00705318
0.034054
-0.00746626
0.0360412
-0.00789856
0.0381384
-0.00836998
0.0403458
-0.00885031
0.0426806
-0.00940714
0.0451433
-0.00996726
0.0477413
-0.010576
0.0504915
-0.0112447
0.0533918
-0.0118892
0.0564411
-0.0125681
0.0596599
-0.0133666
0.0630576
-0.0142101
0.0666418
-0.0151002
0.0704264
-0.0160619
0.0744163
-0.0170566
0.0786217
-0.0181223
0.0830567
-0.0192723
0.0877264
-0.0204654
0.0926434
-0.0217443
0.0978199
-0.0231045
0.103264
-0.0245294
0.108979
-0.0260152
0.114999
-0.0276682
0.12128
-0.0292015
0.127951
-0.0312834
0.134769
-0.0324839
0.142231
-0.0356588
0.149559
-0.0359299
0.157877
-0.0406925
0.166089
-0.04085
0.174567
-0.0430512
0.183892
-0.0453362
-0.040078
-0.0406996
-0.0150254
0.0409
-0.0402553
-0.0143577
-0.0395828
-0.0135978
-0.0387154
-0.0127727
-0.0376984
-0.011931
-0.0365781
-0.0111055
-0.0353947
-0.0103202
-0.0341806
-0.00958866
-0.0329598
-0.00891716
-0.0317491
-0.00830661
-0.0305596
-0.00775459
-0.0293982
-0.00725697
-0.0282689
-0.00680881
-0.0271733
-0.00640501
-0.0261121
-0.00604072
-0.0250848
-0.00571144
-0.0240905
-0.00541315
-0.0231277
-0.00514227
-0.0221951
-0.0048957
-0.0212912
-0.00467068
-0.0204143
-0.00446483
-0.019563
-0.00427606
-0.0187358
-0.00410253
-0.0179313
-0.00394263
-0.0171482
-0.00379495
-0.0163852
-0.0036583
-0.0156412
-0.00353165
-0.014915
-0.00341423
-0.0142055
-0.00330545
-0.0135115
-0.00320495
-0.012832
-0.00311245
-0.0121658
-0.00302772
-0.0115118
-0.00295036
-0.010869
-0.00287981
-0.0102365
-0.00281546
-0.00961319
-0.00275672
-0.00899833
-0.00270322
-0.00839105
-0.00265458
-0.00779042
-0.00261096
-0.0071955
-0.00257287
-0.00660571
-0.00253844
-0.00602044
-0.00250747
-0.00543977
-0.00247589
-0.00486207
-0.0024518
-0.00428634
-0.00243447
-0.00371219
-0.00241848
-0.00313758
-0.0024127
-0.00256124
-0.00241398
-0.00198035
-0.00242842
-0.00139685
-0.00243559
-0.000804271
-0.00246964
-0.000209452
-0.00247516
0.000395886
-0.00251297
0.00100385
-0.00251744
0.00162292
-0.0025601
0.00225019
-0.00259037
0.00289042
-0.00264623
0.0035478
-0.00271779
0.00422008
-0.00278221
0.00491318
-0.00287007
0.00562283
-0.0029396
0.00635224
-0.00302333
0.00710273
-0.00311281
0.00787487
-0.00320715
0.00867274
-0.00331942
0.00949859
-0.00344161
0.0103508
-0.00355589
0.0112374
-0.00371105
0.0121597
-0.0038685
0.013114
-0.00401093
0.0141119
-0.00420806
0.0151475
-0.00437072
0.0162202
-0.00453589
0.0173386
-0.0047415
0.0184994
-0.00492959
0.0197087
-0.00515437
0.0209778
-0.00542961
0.0223022
-0.00568166
0.023689
-0.00597427
0.0251466
-0.00630142
0.0266685
-0.00659989
0.0282677
-0.00696612
0.0299455
-0.00733459
0.0317031
-0.00771891
0.0335563
-0.00817732
0.035498
-0.00860276
0.03754
-0.00909521
0.039688
-0.00961422
0.0419449
-0.0101555
0.0443204
-0.0107455
0.0468138
-0.0113437
0.0494429
-0.0120362
0.0522086
-0.012733
0.0551165
-0.0134839
0.0581855
-0.0143138
0.0614165
-0.0151202
0.0648033
-0.0159549
0.0683641
-0.0169275
0.072109
-0.017955
0.0760448
-0.019036
0.0801852
-0.0202023
0.084535
-0.0214065
0.0891031
-0.0226903
0.0939025
-0.0240718
0.0989383
-0.0255012
0.104222
-0.0270275
0.109764
-0.0286473
0.115574
-0.0303394
0.121655
-0.0320957
0.12804
-0.0340532
0.134682
-0.0358439
0.141722
-0.0383226
0.148896
-0.0396584
0.156736
-0.0434984
0.164418
-0.0436126
0.173127
-0.0494015
0.181724
-0.0494468
0.1906
-0.0519268
0.200352
-0.0550884
-0.0496381
-0.0425701
-0.0151537
0.0426984
-0.0422478
-0.0146801
-0.041732
-0.0141136
-0.041037
-0.0134677
-0.0401898
-0.0127782
-0.0392229
-0.0120725
-0.0381688
-0.0113743
-0.0370569
-0.0107006
-0.0359113
-0.0100627
-0.0347511
-0.00946676
-0.0335905
-0.00891515
-0.0324396
-0.00840782
-0.0313053
-0.00794304
-0.0301921
-0.00751816
-0.0291027
-0.00713008
-0.0280386
-0.00677559
-0.0270002
-0.00645155
-0.0259874
-0.00615501
-0.0249999
-0.00588326
-0.0240368
-0.0056338
-0.0230973
-0.00540441
-0.0221803
-0.00519309
-0.0212848
-0.00499802
-0.0204098
-0.00481762
-0.0195543
-0.00465047
-0.0187173
-0.00449533
-0.0178977
-0.00435119
-0.0170947
-0.00421726
-0.0163071
-0.00409297
-0.0155341
-0.00397797
-0.0147745
-0.00387201
-0.0140273
-0.00377483
-0.0132916
-0.00368604
-0.0125664
-0.00360505
-0.0118506
-0.00353118
-0.0111435
-0.00346381
-0.0104442
-0.00340256
-0.00975173
-0.00334704
-0.0090652
-0.00329751
-0.00838371
-0.00325437
-0.0077067
-0.00321547
-0.00703355
-0.00318062
-0.00636424
-0.00314521
-0.00569703
-0.00311902
-0.005031
-0.00310052
-0.00436577
-0.00308372
-0.00369906
-0.00307942
-0.00302978
-0.00308327
-0.00235473
-0.00310347
-0.00167643
-0.0031139
-0.000987157
-0.00315892
-0.000294914
-0.0031674
0.000410073
-0.00321796
0.00111891
-0.00322628
0.00184113
-0.00328232
0.00257304
-0.00332228
0.00331972
-0.00339291
0.00408578
-0.00348385
0.00486868
-0.00356511
0.00567511
-0.00367649
0.0065004
-0.0037649
0.00734815
-0.00387107
0.00821968
-0.00398434
0.00911558
-0.00410306
0.0100401
-0.00424391
0.0109959
-0.00439746
0.0119813
-0.0045413
0.0130045
-0.00473419
0.0140674
-0.00493146
0.0151658
-0.00510929
0.016312
-0.00535424
0.0175006
-0.00555934
0.0187304
-0.0057657
0.0200104
-0.00602148
0.0213378
-0.00625702
0.0227179
-0.00653439
0.0241626
-0.0068744
0.0256682
-0.00718725
0.0272408
-0.00754688
0.0288901
-0.00795062
0.0306094
-0.00831926
0.0324114
-0.00876815
0.0342984
-0.0092215
0.0362703
-0.00969082
0.0383438
-0.0102508
0.040512
-0.010771
0.042786
-0.0113692
0.045172
-0.0120002
0.0476725
-0.012656
0.0502977
-0.0133707
0.0530461
-0.0140921
0.0559355
-0.0149256
0.0589675
-0.015765
0.062146
-0.0166624
0.0654913
-0.017659
0.0690077
-0.0186366
0.0726848
-0.019632
0.0765377
-0.0207804
0.0805775
-0.0219948
0.0848108
-0.0232693
0.0892513
-0.0246427
0.0939046
-0.0260598
0.0987786
-0.0275644
0.103886
-0.0291795
0.109234
-0.0308485
0.114831
-0.0326253
0.120693
-0.0345086
0.126826
-0.0364731
0.133236
-0.0385058
0.139959
-0.0407757
0.146947
-0.0428322
0.154345
-0.0457208
0.161889
-0.0472017
0.170119
-0.0517292
0.178204
-0.0516976
0.18735
-0.0585471
0.196401
-0.0584977
0.205778
-0.0613039
0.216034
-0.0653445
-0.059927
-0.0444101
-0.0152388
0.0444952
-0.0441697
-0.0149204
-0.0437677
-0.0145157
-0.0432067
-0.0140288
-0.0425008
-0.0134842
-0.0416704
-0.0129028
-0.0407397
-0.0123051
-0.0397325
-0.0117079
-0.0386709
-0.0111244
-0.0375738
-0.0105638
-0.0364566
-0.0100322
-0.0353316
-0.00953285
-0.0342077
-0.0090669
-0.0330916
-0.00863418
-0.031988
-0.00823359
-0.0309002
-0.00786342
-0.02983
-0.0075217
-0.0287788
-0.00720632
-0.0277469
-0.00691517
-0.0267345
-0.00664623
-0.0257414
-0.00639756
-0.0247671
-0.00616736
-0.0238112
-0.00595397
-0.022873
-0.00575588
-0.0219517
-0.00557173
-0.0210467
-0.00540034
-0.0201572
-0.00524071
-0.0192823
-0.0050921
-0.0184213
-0.00495398
-0.0175732
-0.00482602
-0.0167372
-0.004708
-0.0159123
-0.00459968
-0.0150977
-0.00450065
-0.0142924
-0.00441032
-0.0134956
-0.00432799
-0.0127064
-0.00425301
-0.0119239
-0.00418502
-0.0111473
-0.00412364
-0.0103756
-0.00406923
-0.00960799
-0.004022
-0.00884392
-0.00397956
-0.0080828
-0.00394176
-0.00732439
-0.00390364
-0.00656699
-0.00387643
-0.00580971
-0.00385782
-0.00505227
-0.00384117
-0.00429214
-0.00383956
-0.00352854
-0.00384687
-0.00275789
-0.00387413
-0.00198338
-0.00388842
-0.00119595
-0.00394636
-0.000404755
-0.0039586
0.000401442
-0.00402415
0.00121292
-0.00403776
0.00204016
-0.00410957
0.00287855
-0.00416066
0.00373345
-0.00424781
0.00460963
-0.00436004
0.00550441
-0.00445989
0.00642509
-0.00459718
0.0073667
-0.00470651
0.00833329
-0.00483766
0.00932598
-0.00497703
0.0103455
-0.00512263
0.0113961
-0.00529442
0.0124809
-0.00548227
0.0135982