/*--------------------------------*- C++ -*----------------------------------*\
| =========                 |                                                 |
| \\      /  F ield         | OpenFOAM: The Open Source CFD Toolbox           |
|  \\    /   O peration     | Version:  2412                                  |
|   \\  /    A nd           | Website:  www.openfoam.com                      |
|    \\/     M anipulation  |                                                 |
\*---------------------------------------------------------------------------*/
FoamFile
{
    version     2.0;
    format      ascii;
    arch        "LSB;label=32;scalar=64";
    class       volVectorField;
    location    "0.01";
    object      U;
}
// * * * * * * * * * * * * * * * * * * * * * * * * * * * * * * * * * * * * * //

dimensions      [0 1 -1 0 0 0 0];

internalField   nonuniform List<vector> 
12600
(
(-7.0789 -1.13061e-21 -0.683924)
(-5.46028 -9.00461e-21 0.29993)
(-4.16796 -1.24811e-20 0.472338)
(-3.43363 0 0.474309)
(-2.95274 -1.66043e-20 0.443395)
(-2.59586 -1.79406e-20 0.408508)
(-2.31726 0 0.375746)
(-2.09091 0 0.346396)
(-1.90218 7.69605e-20 0.320315)
(-1.74156 0 0.297098)
(-1.60269 -3.87382e-20 0.276324)
(-1.48105 -3.85103e-20 0.257629)
(-1.37336 3.81346e-20 0.240707)
(-1.27714 0 0.225306)
(-1.19051 3.69717e-20 0.211218)
(-1.11198 0 0.198272)
(-1.04036 -1.42513e-19 0.186324)
(-0.97471 0 0.175255)
(-0.914232 6.80658e-20 0.164963)
(-0.858281 6.64775e-20 0.155363)
(-0.806315 -6.47631e-20 0.14638)
(-0.75788 -5.49946e-23 0.137953)
(-0.712592 0 0.130024)
(-0.670126 1.18912e-19 0.122547)
(-0.6302 0 0.115481)
(-0.592573 0 0.108787)
(-0.557029 1.08338e-19 0.102435)
(-0.52338 0 0.0963955)
(-0.491456 4.23483e-23 0.0906427)
(-0.461104 -9.80468e-20 0.0851529)
(-0.432183 -9.47555e-20 0.0799039)
(-0.404563 -9.15313e-20 0.0748748)
(-0.378125 8.83761e-20 0.0700466)
(-0.352762 1.70581e-19 0.0654024)
(-0.328381 1.64547e-19 0.0609271)
(-0.304902 -1.58683e-19 0.0566073)
(-0.282253 0 0.0524311)
(-0.260369 1.47263e-19 0.0483875)
(-0.239193 0 0.0444668)
(-0.218669 -1.36416e-19 0.040659)
(-0.198712 0 0.0369495)
(-0.179337 2.81571e-23 0.0333438)
(-0.160427 0 0.0298179)
(-0.142141 2.08256e-23 0.0264058)
(-0.124123 -2.23395e-19 0.0230319)
(-0.106655 2.14315e-19 0.019765)
(-0.0893449 -2.05548e-19 0.0165142)
(-0.0725133 0 0.0133575)
(-0.0555778 0 0.0101691)
(-0.0390644 -1.80817e-19 0.007072)
(-0.0223716 -3.46212e-19 0.00393762)
(-0.00592222 -3.31288e-19 0.000878074)
(0.01046 8.32547e-24 -0.00217123)
(0.0268585 -3.02937e-19 -0.00523799)
(0.0428225 0 -0.0082509)
(0.0591912 2.76505e-19 -0.0113424)
(0.0751167 2.63979e-19 -0.0143662)
(0.0917321 2.51871e-19 -0.0175194)
(0.108155 0 -0.020646)
(0.125089 0 -0.0238683)
(0.142145 0 -0.0271195)
(0.159373 -4.15254e-19 -0.0304042)
(0.17692 0 -0.0337529)
(0.194658 0 -0.0371408)
(0.212771 7.13774e-19 -0.0406007)
(0.231297 0 -0.0441433)
(0.250216 0 -0.0477594)
(0.269436 0 -0.0514372)
(0.289564 -5.77259e-19 -0.0552887)
(0.30989 5.46274e-19 -0.0591774)
(0.330933 5.16448e-19 -0.0632066)
(0.352754 -1.9924e-23 -0.0673829)
(0.374698 -4.60182e-19 -0.0715838)
(0.397452 0 -0.0759415)
(0.420748 4.082e-19 -0.0804024)
(0.444493 0 -0.0849507)
(0.469284 0 -0.0897004)
(0.494955 0 -0.0946178)
(0.521252 -4.30403e-23 -0.0996564)
(0.548889 5.90603e-19 -0.104952)
(0.577321 5.50839e-19 -0.1104)
(0.606638 -5.1281e-19 -0.116017)
(0.637466 -4.76343e-19 -0.121926)
(0.668926 0 -0.127954)
(0.702095 0 -0.134312)
(0.736427 7.52414e-19 -0.140892)
(0.771931 -1.38318e-18 -0.147698)
(0.80923 1.26711e-18 -0.154848)
(0.847699 5.78191e-19 -0.162222)
(0.888079 0 -0.169963)
(0.929817 -9.50889e-19 -0.177965)
(0.973484 4.27807e-19 -0.186337)
(1.01914 -3.82676e-19 -0.195092)
(1.0665 6.79626e-19 -0.204173)
(1.11632 0 -0.213726)
(1.16779 0 -0.223599)
(1.22059 0 -0.233731)
(1.27593 0 -0.244351)
(1.33419 0 -0.25553)
(1.39507 0 -0.267209)
(1.45896 -2.03989e-19 -0.279467)
(1.52578 -3.04425e-19 -0.292289)
(1.59552 -2.08102e-19 -0.305669)
(1.66868 0 -0.319709)
(1.74527 0 -0.334407)
(1.82526 0 -0.349757)
(1.90926 1.11663e-19 -0.365879)
(1.99689 3.52367e-19 -0.382699)
(2.08901 -2.34815e-19 -0.40038)
(2.18434 0 -0.418684)
(2.28654 6.72093e-19 -0.438301)
(2.38781 0 -0.457755)
(2.5051 8.32459e-19 -0.480273)
(2.60615 -9.06908e-19 -0.499675)
(2.74992 9.56358e-19 -0.527316)
(2.84489 1.01579e-18 -0.545431)
(3.02023 -1.06062e-18 -0.579286)
(3.11395 2.44452e-22 -0.597134)
(3.28443 -1.13742e-18 -0.630009)
(3.31455 0 -0.636878)
(-15.0617 1.14905e-21 -1.50056)
(-12.3831 0 0.3834)
(-10.4186 1.26667e-20 0.852367)
(-8.96035 0 0.985331)
(-7.88177 1.6853e-20 0.999303)
(-7.03538 3.52115e-20 0.970462)
(-6.35277 1.8428e-20 0.926086)
(-5.78529 0 0.87723)
(-5.30376 -3.92644e-22 0.828321)
(-4.88803 3.88584e-20 0.781205)
(-4.52419 -3.89017e-20 0.736584)
(-4.20214 -3.87398e-20 0.694659)
(-3.91436 3.84137e-20 0.655396)
(-3.65512 -3.79559e-20 0.618657)
(-3.41996 -7.49239e-20 0.584266)
(-3.20534 0 0.552036)
(-3.00841 2.04491e-22 0.521784)
(-2.82683 -7.05327e-20 0.493341)
(-2.65869 -6.90738e-20 0.466549)
(-2.50238 0 0.441266)
(-2.35655 0 0.417363)
(-2.22004 -6.38712e-20 0.394725)
(-2.0919 0 0.373245)
(-1.97127 -6.02724e-20 0.352831)
(-1.85744 1.16795e-19 0.333399)
(-1.74977 0 0.314872)
(-1.64772 -1.09643e-19 0.297183)
(-1.55079 0 0.280269)
(-1.45855 1.02725e-19 0.264072)
(-1.37059 1.98536e-19 0.248538)
(-1.28655 1.91828e-19 0.233614)
(-1.20609 9.26537e-20 0.219251)
(-1.12888 -8.94343e-20 0.205402)
(-1.05463 -3.45066e-19 0.192026)
(-0.983108 -3.32765e-19 0.179088)
(-0.914074 0 0.166556)
(-0.847341 0 0.154399)
(-0.782727 -4.56733e-23 0.142592)
(-0.720079 0 0.131109)
(-0.659237 1.37722e-19 0.119922)
(-0.599967 0 0.108995)
(-0.542308 2.54431e-19 0.0983475)
(-0.485929 0 0.0879159)
(-0.431303 2.34549e-19 0.0777937)
(-0.377393 0 0.0677557)
(-0.325042 -2.15807e-19 0.0580225)
(-0.273074 0 0.0483072)
(-0.222488 0 0.0388576)
(-0.171509 1.89795e-19 0.0292879)
(-0.121754 0 0.0199848)
(-0.0714061 0 0.0105021)
(-0.0217432 0 0.00121146)
(0.0277495 3.17879e-19 -0.00809279)
(0.0773802 6.07416e-19 -0.0174136)
(0.125726 0 -0.0265795)
(0.175399 0 -0.0359751)
(0.223728 -2.64139e-19 -0.0451851)
(0.274198 -2.5186e-19 -0.0547938)
(0.324128 0 -0.0643245)
(0.375598 0 -0.0741514)
(0.427531 0 -0.0840648)
(0.479952 0 -0.0940816)
(0.533434 -3.93606e-19 -0.104304)
(0.587482 3.73947e-19 -0.11465)
(0.642703 -7.10014e-19 -0.125222)
(0.699208 0 -0.136056)
(0.756896 0 -0.147103)
(0.815556 0 -0.158366)
(0.876948 -3.13385e-23 -0.170152)
(0.938959 -5.41049e-19 -0.182041)
(1.00317 -5.11042e-19 -0.194384)
(1.06972 9.64473e-19 -0.207149)
(1.13667 -3.56005e-23 -0.219991)
(1.20609 -4.27949e-19 -0.233326)
(1.27714 -4.02392e-19 -0.246961)
(1.34958 0 -0.260879)
(1.42518 0 -0.275425)
(1.50345 0 -0.290462)
(1.58362 6.20612e-19 -0.305881)
(1.66785 0 -0.322085)
(1.75448 0 -0.338734)
(1.84378 5.01894e-19 -0.355917)
(1.93768 4.65705e-19 -0.373978)
(2.03346 0 -0.3924)
(2.13444 0 -0.411839)
(2.23892 0 -0.431932)
(2.34693 1.34665e-18 -0.45272)
(2.46038 1.31213e-22 -0.474554)
(2.57734 5.61806e-19 -0.497061)
(2.70007 -5.10079e-19 -0.520682)
(2.8269 9.21779e-19 -0.545089)
(2.95949 4.14361e-19 -0.57062)
(3.09813 7.40262e-19 -0.597302)
(3.24184 0 -0.624974)
(3.39292 0 -0.654056)
(3.54923 0 -0.684117)
(3.7097 0 -0.714997)
(3.87773 3.67964e-19 -0.747363)
(4.05438 0 -0.781385)
(4.2388 0 -0.816898)
(4.43221 -1.95902e-19 -0.854145)
(4.63437 1.45866e-19 -0.893072)
(4.8452 3.9865e-19 -0.93367)
(5.06625 -1.13592e-19 -0.976241)
(5.29745 0 -1.02076)
(5.53871 0 -1.06723)
(5.79189 0 -1.11599)
(6.05581 -1.67735e-19 -1.16681)
(6.33283 2.23473e-19 -1.22016)
(6.61969 0 -1.2754)
(6.9261 -1.2766e-18 -1.33441)
(7.23095 -7.21839e-19 -1.39311)
(7.58145 -1.57883e-18 -1.46062)
(7.88459 0 -1.51899)
(8.31544 0 -1.60199)
(8.58952 9.60743e-19 -1.65494)
(9.12861 0 -1.75835)
(9.3863 1.02315e-18 -1.80847)
(9.91918 1.07384e-18 -1.90909)
(10.086 0 -1.93946)
(-19.0107 0 -2.18507)
(-16.6939 0 -0.433589)
(-14.8057 1.16065e-20 0.384611)
(-13.1452 0 0.79706)
(-11.8083 0 0.99254)
(-10.6978 -1.68655e-20 1.0772)
(-9.76884 -1.74731e-20 1.10384)
(-8.97597 0 1.09902)
(-8.28976 -2.49105e-22 1.07692)
(-7.68793 -3.68424e-20 1.04529)
(-7.15434 7.35801e-20 1.00858)
(-6.6768 3.67284e-20 0.969395)
(-6.24598 -1.37882e-22 0.929283)
(-5.85462 3.59837e-20 0.889188)
(-5.49694 3.54488e-20 0.849675)
(-5.16828 -3.47446e-20 0.811082)
(-4.86485 6.8314e-20 0.773603)
(-4.58352 6.68612e-20 0.73734)
(-4.32165 0 0.702334)
(-4.07704 0 0.66859)
(-3.84781 -6.2021e-20 0.636089)
(-3.63236 -6.03658e-20 0.604794)
(-3.42932 0 0.574662)
(-3.23748 0 0.545643)
(-3.05583 -1.10688e-19 0.517688)
(-2.88344 0 0.490746)
(-2.71953 2.07722e-19 0.464765)
(-2.56338 -1.00488e-19 0.439696)
(-2.41436 0 0.415485)
(-2.27188 -9.4024e-20 0.39208)
(-2.13539 -9.08454e-20 0.369424)
(-2.0044 0 0.347465)
(-1.87842 8.46457e-20 0.326151)
(-1.75701 1.634e-19 0.305437)
(-1.6398 5.59613e-23 0.285287)
(-1.52644 0 0.265663)
(-1.41664 0 0.246533)
(-1.31013 -1.4086e-19 0.227865)
(-1.20666 0 0.20963)
(-1.106 0 0.191784)
(-1.00778 0 0.174287)
(-0.912058 0 0.157173)
(-0.818317 0 0.140364)
(-0.727331 0 0.123988)
(-0.63742 0 0.107681)
(-0.549989 2.04186e-19 0.091835)
(-0.463065 -1.95712e-19 0.0759485)
(-0.378377 0 0.0604524)
(-0.292924 -1.79567e-19 0.0446957)
(-0.209461 0 0.0293683)
(-0.12494 0 0.0136361)
(-0.0414925 3.14468e-19 -0.00179459)
(0.0417194 0 -0.0173161)
(0.125298 -2.87175e-19 -0.0328205)
(0.206747 2.7422e-19 -0.0481163)
(0.290566 0 -0.0637945)
(0.372115 2.49671e-19 -0.0792117)
(0.45732 0 -0.0953218)
(0.541677 0 -0.111304)
(0.628598 0 -0.127803)
(0.716425 4.1117e-19 -0.144442)
(0.805019 3.91099e-19 -0.161262)
(0.895517 -7.70924e-24 -0.178452)
(0.986943 -7.06233e-19 -0.195854)
(1.08038 -1.03315e-23 -0.21366)
(1.176 0 -0.231918)
(1.27361 0 -0.250514)
(1.3729 -5.70706e-19 -0.269532)
(1.47674 -2.68432e-23 -0.289409)
(1.58164 0 -0.309439)
(1.69023 0 -0.330283)
(1.80276 -4.54776e-19 -0.351779)
(1.91597 -3.00504e-23 -0.373411)
(2.03331 -3.03499e-23 -0.395897)
(2.15339 0 -0.418856)
(2.2758 0 -0.442322)
(2.40349 -6.67938e-19 -0.466863)
(2.53562 6.2536e-19 -0.492187)
(2.67092 0 -0.518175)
(2.81298 0 -0.545476)
(2.95904 0 -0.573484)
(3.10953 0 -0.602414)
(3.2677 0 -0.632791)
(3.42894 0 -0.663763)
(3.59883 0 -0.69645)
(3.77452 0 -0.730183)
(3.95601 -1.26643e-18 -0.765086)
(4.14656 -5.79286e-19 -0.801721)
(4.34282 -5.28022e-19 -0.839454)
(4.54863 4.79307e-19 -0.87903)
(4.76119 -8.6621e-19 -0.919889)
(4.98312 -3.89204e-19 -0.962603)
(5.2151 -3.47644e-19 -1.0072)
(5.45526 0 -1.05342)
(5.70742 0 -1.10192)
(5.96854 0 -1.15206)
(6.23663 0 -1.20359)
(6.51681 -3.45209e-19 -1.25756)
(6.81083 0 -1.31416)
(7.1173 0 -1.37315)
(7.43821 1.83682e-19 -1.43493)
(7.77319 0 -1.49939)
(8.12195 -1.86982e-19 -1.56652)
(8.487 1.06448e-19 -1.6368)
(8.86815 0 -1.71016)
(9.26513 0 -1.78657)
(9.68086 0 -1.8666)
(10.1134 -1.56593e-19 -1.94985)
(10.5662 0 -2.03701)
(11.0343 2.56412e-19 -2.12713)
(11.5324 3.94985e-22 -2.22297)
(12.0276 6.75561e-19 -2.31839)
(12.5948 1.47662e-18 -2.42738)
(13.082 0 -2.52153)
(13.7802 -8.4643e-19 -2.65554)
(14.2022 -8.98653e-19 -2.73753)
(15.0892 -9.37377e-19 -2.90729)
(15.4642 0 -2.98012)
(16.3427 -1.00407e-18 -3.14511)
(16.6807 0 -3.20653)
(-20.8381 0 -2.89372)
(-19.1904 0 -1.33865)
(-17.6239 -1.0985e-20 -0.326035)
(-16.0831 0 0.300911)
(-14.7361 1.46132e-20 0.680125)
(-13.5506 -3.12421e-20 0.903629)
(-12.5174 0 1.03253)
(-11.6089 3.35964e-20 1.10197)
(-10.8046 -3.43605e-20 1.1338)
(-10.0863 -3.45086e-20 1.14131)
(-9.43994 -3.47283e-20 1.1329)
(-8.85426 3.44782e-20 1.11399)
(-8.32018 -3.43326e-20 1.08815)
(-7.83043 6.76726e-20 1.05776)
(-7.37905 0 1.02447)
(-6.96118 6.56742e-20 0.989389)
(-6.57274 0 0.953323)
(-6.21033 0 0.916823)
(-5.87105 0 0.880284)
(-5.55245 -6.01181e-20 0.843982)
(-5.25242 8.44844e-23 0.808111)
(-4.96912 7.4411e-23 0.772807)
(-4.70099 -5.54549e-20 0.73816)
(-4.44663 0 0.70423)
(-4.20484 0 0.671057)
(-3.97456 0 0.63866)
(-3.75484 -1.96333e-19 0.607045)
(-3.54485 6.83693e-23 0.576208)
(-3.34381 0 0.546129)
(-3.15104 0 0.516781)
(-2.96586 0 0.488128)
(-2.78765 0 0.46013)
(-2.61582 -1.60055e-19 0.43275)
(-2.44984 0 0.405956)
(-2.28922 1.48934e-19 0.379724)
(-2.13354 0 0.354027)
(-1.98242 0 0.328841)
(-1.83552 1.33091e-19 0.304138)
(-1.69254 0 0.279891)
(-1.55316 0 0.256046)
(-1.41693 -1.18408e-19 0.232574)
(-1.28392 2.27522e-19 0.209523)
(-1.15345 0 0.186827)
(-1.02658 2.09697e-19 0.164617)
(-0.901026 0 0.142407)
(-0.77877 -3.85808e-19 0.120771)
(-0.657024 2.04232e-23 0.0989821)
(-0.5383 0 0.0776559)
(-0.418359 0 0.0558765)
(-0.301119 1.62302e-19 0.0346821)
(-0.182301 3.10536e-19 0.012833)
(-0.0648622 -5.93872e-19 -0.00854297)
(0.0523062 0 -0.0301336)
(0.170181 -2.71096e-19 -0.051658)
(0.285094 -2.58856e-19 -0.0730019)
(0.403524 -2.47022e-19 -0.0949007)
(0.518748 -2.35624e-19 -0.116501)
(0.639168 0 -0.139126)
(0.758474 0 -0.161564)
(0.881332 -4.07571e-19 -0.184769)
(1.00563 -7.75717e-19 -0.208154)
(1.13093 -3.68875e-19 -0.231808)
(1.25905 -8.61549e-24 -0.256018)
(1.38844 3.32965e-19 -0.280525)
(1.52068 3.16015e-19 -0.305634)
(1.65601 0 -0.331389)
(1.79411 0 -0.357595)
(1.93461 5.37823e-19 -0.384465)
(2.08142 1.01762e-18 -0.41251)
(2.22975 0 -0.440746)
(2.38318 4.54115e-19 -0.470181)
(2.54214 4.28367e-19 -0.500456)
(2.70208 4.0359e-19 -0.530929)
(2.86773 7.5972e-19 -0.562628)
(3.03721 0 -0.594948)
(3.20992 0 -0.628018)
(3.38988 6.28544e-19 -0.662606)
(3.57603 -1.17682e-18 -0.698237)
(3.76651 -5.50004e-19 -0.734816)
(3.96632 0 -0.773213)
(4.17168 0 -0.812547)
(4.38304 0 -0.85319)
(4.60505 0 -0.895811)
(4.83118 0 -0.939235)
(5.06914 0 -0.98505)
(5.31507 -6.48276e-19 -1.03225)
(5.56882 -1.19531e-22 -1.08106)
(5.83496 5.44272e-19 -1.13225)
(6.10877 0 -1.1849)
(6.39552 4.50202e-19 -1.24006)
(6.69138 4.0659e-19 -1.29694)
(6.99972 0 -1.35632)
(7.32173 -3.264e-19 -1.41825)
(7.6545 -5.79005e-19 -1.48233)
(8.00322 0 -1.54944)
(8.36448 0 -1.61879)
(8.73514 0 -1.69004)
(9.12148 -3.2397e-19 -1.76451)
(9.52581 0 -1.84241)
(9.94626 0 -1.9234)
(10.3854 1.72417e-19 -2.00802)
(10.8428 -1.28556e-19 -2.09608)
(11.3177 0 -2.18756)
(11.8135 0 -2.28307)
(12.3295 0 -2.38247)
(12.8654 0 -2.48569)
(13.4246 0 -2.59343)
(14.0045 2.48603e-22 -2.70512)
(14.6091 0 -2.82157)
(15.2318 -2.39941e-19 -2.94159)
(15.8917 5.58428e-19 -3.06856)
(16.5444 0 -3.19455)
(17.2905 -4.01351e-22 -3.33772)
(17.9213 0 -3.46025)
(18.8404 3.62652e-22 -3.63599)
(19.3561 0 -3.73758)
(20.5374 8.7641e-19 -3.96266)
(20.961 0 -4.04545)
(22.1205 -9.38131e-19 -4.26268)
(22.6115 0 -4.34791)
(-21.5846 0 -3.48775)
(-20.5001 0 -2.12403)
(-19.2973 0 -1.07975)
(-18.0108 0 -0.333772)
(-16.7921 -1.38067e-20 0.184406)
(-15.6587 -9.98734e-23 0.534564)
(-14.6276 0 0.769722)
(-13.6916 -3.17418e-20 0.924757)
(-12.8421 0 1.02459)
(-12.0683 6.51223e-20 1.08573)
(-11.3608 0 1.11957)
(-10.7109 -3.25732e-20 1.13389)
(-10.1113 0 1.13413)
(-9.5558 -6.39314e-20 1.12415)
(-9.03921 3.14381e-20 1.1067)
(-8.55706 -6.18991e-20 1.08381)
(-8.10556 6.06708e-20 1.05694)
(-7.68147 5.94157e-20 1.02721)
(-7.28198 0 0.995442)
(-6.90468 5.6787e-20 0.962261)
(-6.54746 5.53468e-20 0.928145)
(-6.20849 1.0768e-19 0.89346)
(-5.88616 5.23778e-20 0.858485)
(-5.57904 0 0.823437)
(-5.28589 0 0.788484)
(-5.00559 0 0.753755)
(-4.73716 9.26699e-20 0.719343)
(-4.47969 8.96943e-20 0.685317)
(-4.23237 0 0.651717)
(-3.99445 0 0.618561)
(-3.7652 -8.09953e-20 0.58585)
(-3.54394 0 0.553576)
(-3.33001 3.37365e-23 0.521731)
(-3.12281 1.45697e-19 0.490314)
(-2.9218 -1.40497e-19 0.459327)
(-2.7265 0 0.428767)
(-2.53649 0 0.398627)
(-2.35137 -1.25623e-19 0.368896)
(-2.17081 0 0.339555)
(-1.99443 0 0.31054)
(-1.82171 1.11743e-19 0.281853)
(-1.65274 -2.14702e-19 0.253555)
(-1.48672 0 0.225618)
(-1.32496 -1.97854e-19 0.198141)
(-1.16462 0 0.170542)
(-1.00827 1.81971e-19 0.143579)
(-0.852317 1.74393e-19 0.116295)
(-0.700082 0 0.0894921)
(-0.546102 1.59928e-19 0.0619953)
(-0.395469 -1.53063e-19 0.0352247)
(-0.242696 -5.85651e-19 0.00749858)
(-0.0915267 2.79977e-19 -0.0195395)
(0.0593574 -2.67557e-19 -0.0470063)
(0.211413 9.25851e-24 -0.0743065)
(0.359699 0 -0.101536)
(0.512737 2.32831e-19 -0.129498)
(0.661635 2.22065e-19 -0.157162)
(0.817248 -2.11666e-19 -0.186208)
(0.971522 2.0166e-19 -0.214995)
(1.13027 3.83994e-19 -0.244824)
(1.29106 3.65382e-19 -0.274851)
(1.45303 -3.47471e-19 -0.305243)
(1.61878 3.30183e-19 -0.336389)
(1.7861 0 -0.367908)
(1.95708 0 -0.400246)
(2.13202 2.82181e-19 -0.433413)
(2.31047 0 -0.467127)
(2.49199 0 -0.501778)
(2.68146 -4.78857e-19 -0.537884)
(2.87289 0 -0.574198)
(3.0707 -4.27254e-19 -0.612113)
(3.27554 -8.05975e-19 -0.650998)
(3.48166 0 -0.69014)
(3.69493 -3.57254e-19 -0.730876)
(3.91303 0 -0.772344)
(4.13517 0 -0.81481)
(4.3663 -5.90978e-19 -0.859218)
(4.60523 5.53069e-19 -0.904874)
(4.84949 -6.59276e-23 -0.95175)
(5.10532 0 -1.0009)
(5.36816 0 -1.05116)
(5.63825 0 -1.1031)
(5.92167 -3.87126e-19 -1.15747)
(6.21001 3.58219e-19 -1.2128)
(6.51291 0 -1.27114)
(6.82566 1.2172e-18 -1.33111)
(7.14779 5.58423e-19 -1.39308)
(7.48514 -1.02161e-18 -1.45795)
(7.83167 -4.65519e-19 -1.52457)
(8.1939 -8.44785e-19 -1.59425)
(8.56709 0 -1.66597)
(8.95501 0 -1.74072)
(9.35957 3.06052e-19 -1.81852)
(9.77662 5.42823e-19 -1.89883)
(10.2125 -4.77513e-19 -1.98274)
(10.6639 0 -2.06935)
(11.1265 0 -2.15823)
(11.6069 3.03538e-19 -2.25088)
(12.1079 2.53074e-19 -2.34745)
(12.6272 0 -2.44751)
(13.1677 -1.61472e-19 -2.55168)
(13.7287 1.20378e-19 -2.65972)
(14.3091 0 -2.77155)
(14.9125 0 -2.88786)
(15.5381 0 -3.00837)
(16.1847 0 -3.13298)
(16.8565 0 -3.26244)
(17.5496 1.36908e-19 -3.39597)
(18.2685 0 -3.53444)
(19.0046 0 -3.67641)
(19.7806 0 -3.82564)
(20.5414 -5.89937e-19 -3.9728)
(21.4112 -6.45248e-19 -4.13924)
(22.1275 0 -4.27933)
(23.2001 7.39679e-19 -4.48315)
(23.7417 0 -4.59193)
(25.1332 8.18611e-19 -4.85559)
(25.5301 0 -4.93358)
(26.8706 8.76715e-19 -5.1848)
(27.4503 0 -5.28134)
(-21.753 1.08416e-20 -3.95408)
(-21.0611 1.13457e-20 -2.78102)
(-20.1783 -1.21016e-20 -1.79094)
(-19.1669 -1.28911e-20 -1.00337)
(-18.1349 0 -0.401495)
(-17.1241 1.40025e-20 0.0451094)
(-16.1641 0 0.372922)
(-15.2634 -3.00281e-20 0.610509)
(-14.4242 -3.04534e-20 0.781181)
(-13.6438 -6.13472e-20 0.901957)
(-12.9177 3.07085e-20 0.985514)
(-12.241 -3.05977e-20 1.04108)
(-11.609 0 1.07546)
(-11.0171 0 1.09368)
(-10.4614 -2.96554e-20 1.09948)
(-9.93827 5.12655e-23 1.09571)
(-9.44461 -9.60737e-23 1.0845)
(-8.97761 -8.87638e-23 1.06751)
(-8.53484 0 1.04603)
(-8.11412 0 1.02106)
(-7.71355 0 0.993383)
(-7.33144 -1.01434e-19 0.963625)
(-6.96628 -4.92879e-20 0.932285)
(-6.61673 0 0.899766)
(-6.28162 0 0.866389)
(-5.95986 -9.00727e-20 0.832414)
(-5.65049 0 0.798048)
(-5.35264 0 0.763449)
(-5.0655 0 0.728733)
(-4.78832 0 0.693982)
(-4.52036 4.06453e-23 0.659246)
(-4.26093 0 0.624563)
(-4.00934 3.16385e-23 0.589971)
(-3.76499 -1.37356e-19 0.555509)
(-3.52729 4.9624e-23 0.521221)
(-3.29576 0 0.487139)
(-3.06995 0 0.453281)
(-2.84944 0 0.419661)
(-2.63386 0 0.386275)
(-2.4228 0 0.353054)
(-2.21573 0 0.320043)
(-2.01273 0 0.287323)
(-1.81292 1.94193e-19 0.254924)
(-1.61783 1.86366e-19 0.222878)
(-1.42412 0 0.190532)
(-1.23498 1.71394e-19 0.158835)
(-1.04596 0 0.126593)
(-0.861267 0 0.0947997)
(-0.674236 -3.01265e-19 0.0620279)
(-0.491123 0 0.0301119)
(-0.305292 2.75768e-19 -0.00313128)
(-0.121197 0 -0.035434)
(0.0626085 5.03867e-19 -0.0684656)
(0.248176 8.92382e-24 -0.10118)
(0.429206 0 -0.134017)
(0.61628 0 -0.167758)
(0.798297 0 -0.20124)
(0.988475 3.98443e-19 -0.236485)
(1.17712 -3.79574e-19 -0.271381)
(1.37106 -3.61356e-19 -0.307615)
(1.56768 -3.43812e-19 -0.344037)
(1.7656 6.53835e-19 -0.380926)
(1.96825 3.10634e-19 -0.418775)
(2.17269 0 -0.457056)
(2.38157 0 -0.496384)
(2.59514 1.27286e-23 -0.536709)
(2.81293 0 -0.577651)
(3.03436 0 -0.619825)
(3.26514 -4.50233e-19 -0.663685)
(3.49832 0 -0.707745)
(3.73891 0 -0.75381)
(3.98791 7.57486e-19 -0.800906)
(4.23847 -3.5679e-19 -0.84831)
(4.49734 0 -0.897653)
(4.76197 0 -0.947799)
(5.03127 0 -0.99918)
(5.31091 5.55019e-19 -1.05289)
(5.59976 0 -1.10798)
(5.89468 9.70753e-19 -1.16453)
(6.20295 -4.52809e-19 -1.22373)
(6.51947 0 -1.28415)
(6.8441 0 -1.34656)
(7.18422 3.63273e-19 -1.41176)
(7.52979 6.27156e-23 -1.47802)
(7.8919 3.10227e-19 -1.54779)
(8.26535 -5.70917e-19 -1.61933)
(8.64912 5.23951e-19 -1.69316)
(9.05019 4.79049e-19 -1.77027)
(9.46135 4.36466e-19 -1.84929)
(9.89003 -1.11752e-22 -1.93175)
(10.3308 0 -2.01643)
(10.7876 -3.21419e-19 -2.10448)
(11.2629 0 -2.19588)
(11.7514 0 -2.28997)
(12.26 4.47338e-19 -2.38795)
(12.7865 0 -2.4889)
(13.325 0 -2.59231)
(13.8816 0 -2.6997)
(14.4596 -2.36955e-19 -2.81114)
(15.0561 0 -2.92613)
(15.6741 -1.51457e-19 -3.04531)
(16.313 0 -3.16836)
(16.9708 0 -3.29515)
(17.6511 0 -3.42635)
(18.3528 0 -3.56156)
(19.0739 0 -3.70059)
(19.8187 8.04387e-20 -3.84419)
(20.5823 1.27582e-19 -3.99137)
(21.3693 -1.70289e-19 -4.14299)
(22.1692 0 -4.29737)
(23.0076 0 -4.45849)
(23.8195 1.10267e-18 -4.61595)
(24.7505 0 -4.79341)
(25.489 -6.55601e-19 -4.93927)
(26.6401 0 -5.15615)
(27.1429 -7.32876e-19 -5.26045)
(28.6493 -7.64978e-19 -5.54374)
(28.9584 0 -5.60521)
(30.3745 8.18739e-19 -5.8712)
(30.9628 0 -5.96303)
(-21.5887 -1.02095e-20 -4.31889)
(-21.1542 -2.26269e-20 -3.31954)
(-20.5232 1.13988e-20 -2.41913)
(-19.7561 -6.67718e-22 -1.64443)
(-18.9198 -1.32774e-20 -1.00821)
(-18.0599 0 -0.501084)
(-17.208 0 -0.103726)
(-16.3819 2.82889e-20 0.203475)
(-15.5912 5.75087e-20 0.439007)
(-14.8396 -6.54467e-23 0.618008)
(-14.1276 -2.89299e-20 0.752726)
(-13.4539 2.88253e-20 0.852701)
(-12.8164 -2.85849e-20 0.925351)
(-12.2128 0 0.976406)
(-11.6403 0 1.01031)
(-11.0967 2.74238e-20 1.03051)
(-10.5796 -1.07569e-19 1.03974)
(-10.0868 -1.0535e-19 1.04011)
(-9.61639 0 1.03333)
(-9.16666 0 1.02075)
(-8.73598 0 1.00347)
(-8.3229 5.20954e-23 0.982368)
(-7.92613 9.2801e-20 0.958165)
(-7.5445 -4.50487e-20 0.931455)
(-7.17695 -8.74294e-20 0.902727)
(-6.82252 1.69596e-19 0.872381)
(-6.48033 -8.21124e-20 0.840744)
(-6.14959 -7.9487e-20 0.808077)
(-5.82954 -7.68956e-20 0.774581)
(-5.51947 0 0.740408)
(-5.21868 7.18758e-20 0.705671)
(-4.9265 -6.93796e-20 0.670462)
(-4.64228 6.70002e-20 0.634873)
(-4.36541 1.29225e-19 0.598997)
(-4.09533 2.49266e-19 0.562926)
(-3.83155 0 0.526736)
(-3.57363 0 0.49048)
(-3.32115 1.11373e-19 0.454203)
(-3.07372 0 0.417915)
(-2.83092 -1.03059e-19 0.381554)
(-2.59222 -9.90565e-20 0.34522)
(-2.35773 0 0.309013)
(-2.1265 -3.65502e-19 0.273041)
(-1.90023 -1.75392e-19 0.237232)
(-1.67517 0 0.200897)
(-1.45508 -1.61283e-19 0.165177)
(-1.23474 -1.54531e-19 0.12863)
(-1.01922 0 0.0924519)
(-0.800723 2.83412e-19 0.0549692)
(-0.586637 -1.35591e-19 0.0184693)
(-0.369263 -2.59379e-19 -0.0198022)
(-0.153659 0 -0.0568362)
(0.0616456 -1.19391e-23 -0.0949875)
(0.279423 4.52589e-19 -0.132619)
(0.49195 0 -0.170659)
(0.711832 0 -0.209754)
(0.925768 -1.96538e-19 -0.248671)
(1.14919 -1.87307e-19 -0.289747)
(1.3709 3.56845e-19 -0.33036)
(1.59858 3.39688e-19 -0.37263)
(1.82957 3.23167e-19 -0.415037)
(2.06191 -3.07263e-19 -0.45802)
(2.29989 -5.83866e-19 -0.502163)
(2.53979 0 -0.546779)
(2.78478 0 -0.592675)
(3.03506 -4.98675e-19 -0.639707)
(3.29018 0 -0.687399)
(3.54934 0 -0.736626)
(3.81897 4.22868e-19 -0.787707)
(4.09139 0 -0.83895)
(4.37192 -3.77166e-19 -0.892587)
(4.66203 3.18699e-23 -0.947238)
(4.95397 3.34959e-19 -1.00223)
(5.25501 0 -1.05948)
(5.5626 0 -1.11754)
(5.87527 0 -1.17706)
(6.19915 5.20948e-19 -1.23921)
(6.53334 0 -1.30281)
(6.87402 -4.55391e-19 -1.36806)
(7.2292 8.49576e-19 -1.43624)
(7.59362 0 -1.50566)
(7.96648 0 -1.57731)
(8.35635 0 -1.65197)
(8.75184 6.26832e-23 -1.72772)
(9.16495 -2.90829e-19 -1.80734)
(9.59035 -5.35388e-19 -1.88872)
(10.0263 -4.91068e-19 -1.97258)
(10.4807 4.49155e-19 -2.05991)
(10.9454 0 -2.14917)
(11.4283 3.7114e-19 -2.24206)
(11.9238 0 -2.33718)
(12.4351 3.01062e-19 -2.43579)
(12.9658 0 -2.53781)
(13.5093 0 -2.64249)
(14.0727 0 -2.75107)
(14.655 -3.64954e-19 -2.86268)
(15.2492 -3.14087e-19 -2.97669)
(15.86 0 -3.09458)
(16.4911 2.22093e-19 -3.21629)
(17.1393 -1.80583e-19 -3.34124)
(17.8071 1.41714e-19 -3.47008)
(18.494 -1.0584e-19 -3.60241)
(19.1975 0 -3.73802)
(19.9205 0 -3.87752)
(20.662 0 -4.0204)
(21.419 0 -4.16638)
(22.1956 -7.52172e-20 -4.31616)
(22.9864 -2.40862e-22 -4.4686)
(23.7957 3.18177e-19 -4.6245)
(24.6112 0 -4.78202)
(25.4616 0 -4.94522)
(26.2729 -5.15124e-19 -5.10307)
(27.2092 0 -5.28057)
(27.9179 6.12661e-19 -5.42246)
(29.0828 0 -5.63936)
(29.5036 1.36919e-18 -5.73138)
(31.0435 0 -6.01819)
(31.2357 0 -6.0573)
(32.6474 -7.6483e-19 -6.32357)
(33.1848 0 -6.40012)
(-21.2263 0 -4.60898)
(-20.9573 1.1233e-20 -3.75878)
(-20.5122 0 -2.95755)
(-19.9424 1.20528e-20 -2.22791)
(-19.2839 2.54759e-20 -1.5941)
(-18.5756 0 -1.05941)
(-17.8453 -1.34294e-20 -0.617897)
(-17.1138 0 -0.258852)
(-16.3943 2.09209e-22 0.0300906)
(-15.6948 5.46291e-20 0.26066)
(-15.0196 0 0.443301)
(-14.3707 0 0.586813)
(-13.7483 2.68969e-20 0.698453)
(-13.1521 0 0.784113)
(-12.581 0 0.84855)
(-12.0337 0 0.895591)
(-11.5088 5.05729e-20 0.928324)
(-11.0049 4.95295e-20 0.949246)
(-10.5206 4.83771e-20 0.960383)
(-10.0546 0 0.96339)
(-9.60581 0 0.959623)
(-9.17297 4.48691e-20 0.950201)
(-8.75507 -4.36316e-20 0.936053)
(-8.35114 4.23813e-20 0.917955)
(-7.96033 8.22505e-20 0.896552)
(-7.5818 -1.59419e-19 0.872387)
(-7.21483 5.56533e-23 0.845905)
(-6.8587 7.47728e-20 0.817471)
(-6.51275 7.2333e-20 0.787372)
(-6.17635 0 0.755835)
(-5.84887 0 0.723037)
(-5.52969 6.52569e-20 0.689133)
(-5.21821 0 0.654274)
(-4.91387 -1.21538e-19 0.618612)
(-4.61614 -1.17193e-19 0.582295)
(-4.32456 1.12904e-19 0.545447)
(-4.03872 0 0.50816)
(-3.75818 -1.04732e-19 0.470514)
(-3.48261 -1.00742e-19 0.432538)
(-3.21154 2.53188e-23 0.394181)
(-2.94449 1.86253e-19 0.355611)
(-2.68161 0 0.316946)
(-2.42189 1.71798e-19 0.278385)
(-2.16716 0 0.239719)
(-1.91334 0 0.200262)
(-1.66477 0 0.161336)
(-1.41544 1.91862e-23 0.121251)
(-1.17132 0 0.0814146)
(-0.923573 -1.33177e-19 0.039908)
(-0.680642 2.54847e-19 -0.000484063)
(-0.433892 2.4375e-19 -0.043165)
(-0.188848 0 -0.0842588)
(0.0558655 -2.22638e-19 -0.126953)
(0.303866 -4.2522e-19 -0.168868)
(0.545972 0 -0.21157)
(0.796716 0 -0.255448)
(1.04067 1.84622e-19 -0.299269)
(1.29525 1.75936e-19 -0.345652)
(1.54794 -1.6758e-19 -0.39143)
(1.80712 -3.19028e-19 -0.439199)
(2.07018 0 -0.48701)
(2.33456 0 -0.535511)
(2.60537 -8.81926e-24 -0.585357)
(2.87813 -2.60256e-19 -0.635689)
(3.15651 0 -0.687532)
(3.44054 2.34058e-19 -0.740616)
(3.72993 0 -0.794368)
(4.02358 0 -0.849954)
(4.32842 0 -0.907494)
(4.6364 0 -0.965119)
(4.95281 -3.07506e-23 -1.0255)
(5.27966 3.14009e-23 -1.0868)
(5.60859 -3.14281e-19 -1.14845)
(5.94699 0 -1.21261)
(6.29253 -2.77803e-19 -1.27756)
(6.64334 0 -1.34413)
(7.00565 -4.88495e-19 -1.41359)
(7.37898 4.57126e-19 -1.48444)
(7.75891 -4.2706e-19 -1.55709)
(8.15374 -3.98231e-19 -1.63283)
(8.55847 0 -1.70973)
(8.97146 3.44504e-19 -1.78904)
(9.40218 0 -1.87141)
(9.83838 -2.95386e-19 -1.95483)
(10.2923 -2.72598e-19 -2.04231)
(10.7588 5.01552e-19 -2.13142)
(11.2354 0 -2.22305)
(11.7306 -8.41471e-19 -2.31817)
(12.2356 0 -2.41511)
(12.7585 3.4775e-19 -2.51565)
(13.2935 0 -2.61825)
(13.8431 2.82058e-19 -2.72429)
(14.4118 0 -2.83355)
(14.9921 4.46513e-19 -2.94527)
(15.5903 -3.92554e-19 -3.06063)
(16.2076 3.41524e-19 -3.17888)
(16.8358 2.93892e-19 -3.29929)
(17.4777 0 -3.42317)
(18.1373 -4.15712e-19 -3.55038)
(18.8112 3.38005e-19 -3.68027)
(19.5014 0 -3.81345)
(20.2076 9.89854e-20 -3.94948)
(20.9267 0 -4.0881)
(21.6612 0 -4.22982)
(22.4097 -2.44001e-20 -4.37405)
(23.1691 0 -4.52048)
(23.9429 0 -4.66974)
(24.7256 -1.11278e-19 -4.82059)
(25.5213 -2.96942e-19 -4.97382)
(26.3167 -1.82391e-19 -5.12755)
(27.1429 0 -5.28578)
(27.919 0 -5.43739)
(28.8245 0 -5.60773)
(29.4749 0 -5.74039)
(30.6139 -6.0225e-19 -5.94919)
(30.9406 -6.39377e-19 -6.027)
(32.4648 0 -6.30753)
(32.5468 0 -6.32539)
(33.9162 0 -6.58518)
(34.3835 0 -6.64393)
(-20.7486 -1.27048e-20 -4.8459)
(-20.5841 0 -4.1202)
(-20.2707 -1.25411e-20 -3.41481)
(-19.8514 0 -2.74555)
(-19.3416 -1.22027e-20 -2.13806)
(-18.7705 0 -1.60174)
(-18.1593 1.26225e-20 -1.13921)
(-17.5277 -2.59107e-20 -0.746984)
(-16.8896 -5.16424e-20 -0.418567)
(-16.2551 1.85187e-22 -0.146216)
(-15.6309 0 0.0779032)
(-15.0212 0 0.261059)
(-14.4283 0 0.409689)
(-13.8536 0 0.529326)
(-13.2972 0 0.624645)
(-12.7592 0 0.699556)
(-12.2388 -4.74738e-20 0.757313)
(-11.7356 4.64809e-20 0.800619)
(-11.2487 -4.54698e-20 0.83172)
(-10.7773 0 0.852487)
(-10.3206 0 0.864484)
(-9.87766 -4.20941e-20 0.869022)
(-9.44787 -4.09343e-20 0.867204)
(-9.03045 -3.97633e-20 0.859967)
(-8.62472 0 0.848098)
(-8.23005 7.48806e-20 0.832266)
(-7.84581 1.45029e-19 0.813029)
(-7.47145 -7.01753e-20 0.790845)
(-7.1064 0 0.766086)
(-6.75011 0 0.739051)
(-6.40203 0 0.709983)
(-6.06164 -6.12599e-20 0.679099)
(-5.72839 0 0.646612)
(-5.4018 0 0.612736)
(-5.08139 -1.10025e-19 0.577676)
(-4.76675 -1.06076e-19 0.541607)
(-4.45748 0 0.504661)
(-4.1532 -9.833e-20 0.466954)
(-3.85356 1.8925e-19 0.428533)
(-3.55812 9.10074e-20 0.389371)
(-3.26647 -8.74676e-20 0.349709)
(-2.97877 0 0.309686)
(-2.69399 0 0.269588)
(-2.41403 0 0.229049)
(-2.13459 -1.48458e-19 0.187426)
(-1.86052 0 0.146209)
(-1.58512 1.3639e-19 0.103455)
(-1.31519 1.30605e-19 0.060799)
(-1.04101 0 0.0160727)
(-0.771973 -1.1964e-19 -0.0273941)
(-0.498654 0 -0.0737431)
(-0.226874 0 -0.118095)
(0.0444935 -2.08989e-19 -0.164632)
(0.320042 9.32645e-24 -0.210064)
(0.589137 1.90493e-19 -0.256761)
(0.868082 0 -0.304705)
(1.13944 0 -0.35275)
(1.42237 -1.65119e-19 -0.403758)
(1.70318 0 -0.453988)
(1.99082 2.99372e-19 -0.506561)
(2.28282 0 -0.559024)
(2.57601 0 -0.612295)
(2.87629 5.1436e-19 -0.667074)
(3.17841 4.88313e-19 -0.722322)
(3.48654 2.31627e-19 -0.779302)
(3.80039 0 -0.837589)
(4.12003 0 -0.896515)
(4.44393 1.96823e-19 -0.957559)
(4.77929 3.72217e-19 -1.02058)
(5.11811 0 -1.08358)
(5.46525 3.31828e-19 -1.14966)
(5.82332 -3.12848e-19 -1.21646)
(6.18374 2.9462e-19 -1.28363)
(6.55353 -2.77167e-19 -1.35349)
(6.93082 2.60378e-19 -1.42405)
(7.31338 0 -1.49636)
(7.70712 0 -1.57173)
(8.11219 -4.28336e-19 -1.64836)
(8.52366 8.0032e-19 -1.72686)
(8.94967 0 -1.8085)
(9.38589 0 -1.89111)
(9.82974 -3.22687e-19 -1.97625)
(10.2912 0 -2.06435)
(10.7578 0 -2.1534)
(11.2411 2.55262e-19 -2.24654)
(11.737 4.69844e-19 -2.34105)
(12.2419 0 -2.43803)
(12.7645 3.93921e-19 -2.53832)
(13.296 0 -2.64023)