/*--------------------------------*- C++ -*----------------------------------*\
| =========                 |                                                 |
| \\      /  F ield         | OpenFOAM: The Open Source CFD Toolbox           |
|  \\    /   O peration     | Version:  2412                                  |
|   \\  /    A nd           | Website:  www.openfoam.com                      |
|    \\/     M anipulation  |                                                 |
\*---------------------------------------------------------------------------*/
FoamFile
{
    version     2.0;
    format      ascii;
    arch        "LSB;label=32;scalar=64";
    class       volVectorField;
    location    "0.375";
    object      ddt0(U);
}
// * * * * * * * * * * * * * * * * * * * * * * * * * * * * * * * * * * * * * //

dimensions      [0 1 -2 0 0 0 0];

internalField   nonuniform List<vector> 
12600
(
(-6.31644 0 -0.94136)
(-6.69659 1.74552e-17 0.666195)
(-2.10186 1.83647e-18 0.855538)
(-0.304955 0 0.929171)
(2.0002 -2.01203e-18 1.53182)
(3.62155 0 1.8954)
(3.77024 5.93325e-17 1.64837)
(3.45674 0 0.964341)
(2.29324 0 -0.660245)
(-2.16969 0 -4.01618)
(-8.08701 0 -6.74213)
(-10.7939 8.14871e-17 -6.73648)
(-9.16706 5.84555e-17 -4.72245)
(-5.1441 0 -2.03111)
(-2.19703 -5.6309e-17 -0.310123)
(-2.9988 0 -0.521513)
(-6.73754 -2.7842e-18 -1.69214)
(-9.01574 0 -1.68866)
(-4.92365 5.46411e-17 1.19248)
(5.44397 0 5.8997)
(14.7316 0 8.03142)
(14.0721 0 4.28847)
(0.703711 2.78423e-16 -4.02579)
(-26.8729 -3.23879e-16 -12.6903)
(-59.1884 -9.64774e-18 -15.1757)
(-75.8458 2.50088e-16 -3.84127)
(-13.9403 0 48.6323)
(89.3438 0 94.1305)
(129.317 0 83.4965)
(83.6156 2.71755e-16 36.0516)
(11.8845 8.5399e-16 -4.53248)
(-13.0509 0 -11.4129)
(-6.31295 0 -6.14517)
(-2.29219 3.59388e-16 -4.26287)
(-5.41059 3.38392e-16 -5.5306)
(-8.30916 0 -6.27428)
(-7.42199 0 -5.27219)
(-4.45948 4.22124e-16 -3.55303)
(-2.83842 0 -2.5338)
(-2.78076 -6.8067e-18 -2.19685)
(-3.41596 2.08754e-16 -2.05965)
(-2.64843 1.43012e-16 -1.33748)
(-1.32878 0 -0.448935)
(0.491818 2.95185e-17 0.47623)
(1.05682 -2.70982e-17 0.7845)
(1.36726 1.86196e-16 0.953324)
(1.00689 -2.86828e-16 0.563154)
(1.03568 0 0.429893)
(1.57507 4.17945e-16 0.524238)
(1.47862 -4.08e-16 0.3134)
(1.42535 0 0.155801)
(-0.115919 -3.54089e-18 -0.571504)
(-0.908154 1.70826e-16 -1.24193)
(-1.12306 0 -0.812632)
(-0.0202416 -1.44026e-16 -0.295205)
(0.592051 0 0.091203)
(0.3224 0 0.19953)
(-0.619032 -1.52099e-19 0.256924)
(-2.11218 6.79463e-19 0.13166)
(-1.43729 9.45138e-17 0.100931)
(0.54974 -1.35987e-16 0.446661)
(3.48173 4.77383e-17 1.02943)
(3.92647 0 1.73027)
(-0.195253 -2.54874e-16 -1.90153)
(-2.26757 -3.20616e-16 -2.28362)
(-2.44614 5.71545e-16 -1.83636)
(0.895978 -3.7501e-16 -1.22662)
(2.05084 0 -1.52336)
(4.57407 0 -1.70423)
(2.20301 0 -0.990954)
(-2.53195 0 2.65568)
(-8.80304 0 3.59981)
(-14.3673 -1.94831e-15 7.07049)
(-46.8742 5.94009e-16 26.2184)
(2.57272 0 -0.367849)
(44.9304 0 -21.8539)
(13.0448 7.1792e-16 -6.5925)
(-3.67288 -1.56598e-18 1.52688)
(-7.12729 5.95199e-16 3.12188)
(-6.35693 0 3.40484)
(-6.91906 0 -0.263229)
(13.6252 0 -9.22442)
(41.243 -2.38e-18 -21.7132)
(50.2368 0 -25.8195)
(37.2685 0 -19.3031)
(9.60023 3.11987e-16 -5.845)
(-14.4005 1.20929e-17 7.08253)
(-33.3242 0 17.5857)
(-37.0629 0 20.9239)
(-29.4021 -1.78199e-15 16.255)
(-18.9817 -1.30774e-15 10.1166)
(-10.884 -1.59632e-15 5.69522)
(-4.26077 -1.23366e-15 2.41921)
(0.390761 7.52116e-19 0.123601)
(1.95146 1.47479e-19 -0.84916)
(-1.37018 7.92456e-16 0.826266)
(-5.21456 0 2.72005)
(-2.44917 0 1.07241)
(8.31314 0 -4.74175)
(15.8102 6.8985e-15 -8.7991)
(9.88291 -4.49174e-15 -5.15989)
(-1.87581 4.92639e-15 1.20151)
(-5.8896 5.01299e-15 3.16631)
(-4.08887 0 2.04884)
(-2.10644 0 1.04237)
(-0.84617 0 0.438342)
(-0.0501434 2.62006e-15 0.0103951)
(0.598917 0 -0.638911)
(1.41267 -1.46095e-15 -0.888691)
(2.1862 0 -1.22195)
(2.17057 0 -1.13374)
(1.96332 1.73947e-15 -0.857815)
(0.433821 0 -0.255619)
(-0.634585 0 0.340161)
(-1.77545 0 0.95208)
(-2.34805 -3.04125e-15 1.27569)
(-1.80146 0 1.07455)
(-1.71554 1.56464e-15 1.01485)
(-0.711563 0 0.474557)
(-0.651505 6.74852e-20 0.400291)
(-12.4198 -1.05444e-17 -1.60994)
(-11.7433 -1.24667e-17 1.14854)
(-8.31328 2.6486e-18 2.66203)
(-4.64725 0 3.50448)
(-1.16596 3.09749e-17 3.99557)
(0.0534725 -4.90235e-17 3.53881)
(-0.882579 -6.18913e-17 2.07076)
(-2.51886 6.34725e-17 -0.205335)
(-5.65117 0 -4.0985)
(-11.0063 0 -9.50996)
(-15.0599 0 -12.8618)
(-14.6792 0 -11.7752)
(-10.44 0 -7.44089)
(-5.0057 0 -2.20651)
(-2.2247 -5.04339e-19 1.11841)
(-3.78839 0 1.34439)
(-7.51182 5.25995e-18 -0.0793859)
(-8.04905 0 0.37248)
(-1.12568 -1.14987e-16 5.17269)
(10.6287 1.39276e-16 12.4629)
(17.6329 0 14.8001)
(12.1213 1.39787e-16 7.36081)
(-6.40179 -1.45215e-16 -8.07522)
(-37.6679 1.66076e-16 -25.591)
(-60.3274 -1.9813e-16 -19.1012)
(-45.8482 0 23.0656)
(67.8915 2.16171e-16 150.616)
(177.185 0 231.864)
(175.175 0 184.472)
(83.5467 0 68.1211)
(-4.79308 -4.40585e-16 -16.4488)
(-20.8369 0 -24.6535)
(-8.45011 0 -12.9126)
(-4.66384 0 -9.23497)
(-8.7992 0 -11.2686)
(-11.3777 0 -12.1073)
(-9.34782 0 -9.92041)
(-5.51028 -4.34321e-16 -6.7626)
(-3.50498 0 -4.7253)
(-3.29042 -5.62984e-16 -3.89363)
(-3.54017 -4.20431e-16 -3.23977)
(-2.28279 -1.37456e-16 -1.91417)
(-0.468421 0 -0.297812)
(1.55734 0 1.07831)
(2.19244 5.77864e-17 1.64849)
(2.35412 -1.90113e-16 1.7373)
(1.82253 3.06697e-16 1.13604)
(1.73905 0 0.737988)
(2.13361 -4.29428e-16 0.627275)
(1.83518 0 0.123329)
(1.45903 0 -0.455328)
(-0.32198 -2.50792e-16 -1.48549)
(-1.11512 0 -2.24131)
(-1.1067 0 -1.43188)
(-0.0388518 1.4552e-16 -0.565119)
(0.411962 0 0.214892)
(-0.155805 0 0.600272)
(-1.40084 -3.22726e-19 0.832137)
(-2.99781 8.35514e-17 0.69948)
(-2.03645 -3.17598e-18 0.536005)
(0.658006 0 0.798692)
(4.31368 -3.47053e-17 1.18356)
(4.81871 3.74499e-16 1.48046)
(0.0356679 0 -3.97988)
(-1.47245 6.25e-16 -4.46519)
(-0.527475 -6.71609e-18 -3.85235)
(4.56875 0 -3.71488)
(7.68259 -5.12253e-16 -4.88451)
(10.7429 0 -5.42304)
(6.44307 0 -2.93719)
(-9.97115 0 8.0957)
(-25.513 0 13.8929)
(-40.0862 3.84532e-15 24.0838)
(-135.649 -5.80607e-16 78.5822)
(4.95121 0 -1.22898)
(121.143 0 -66.4007)
(39.1118 7.01887e-16 -19.6504)
(-6.90203 -2.48139e-18 4.35651)
(-19.5112 -7.46063e-19 10.4844)
(-18.3642 0 10.0889)
(-9.39982 0 -2.62187)
(53.559 0 -33.4005)
(129.646 -5.27141e-18 -74.4036)
(144.805 -1.92314e-16 -80.86)
(100.3 -2.24151e-16 -55.2686)
(18.2867 -3.01444e-16 -10.8186)
(-49.2461 1.78473e-17 28.7488)
(-99.8658 -1.0719e-15 57.1041)
(-109.858 0 63.6526)
(-86.6397 1.71281e-15 49.1325)
(-57.0958 0 31.5986)
(-32.7213 1.53059e-15 17.9307)
(-12.737 0 7.08553)
(0.824585 -2.45835e-15 -0.225308)
(5.11682 -7.1361e-16 -2.63639)
(-4.8511 0 3.03276)
(-14.7664 0 8.39313)
(-3.28178 -1.92982e-15 2.0205)
(28.937 2.5767e-15 -17.0884)
(47.5406 -6.56781e-15 -27.3907)
(26.0134 4.26596e-15 -14.3319)
(-7.46745 -4.67457e-15 5.0506)
(-17.2377 0 9.84026)
(-11.5579 4.16569e-15 6.2774)
(-5.96 0 3.19279)
(-2.34927 0 1.27012)
(0.0673013 -2.47104e-15 -0.0999427)
(2.56886 0 -1.93353)
(4.63398 1.49681e-18 -2.80354)
(6.39066 1.45631e-15 -3.69552)
(5.71722 0 -3.21151)
(4.38436 0 -2.31947)
(0.0411649 0 -0.0168636)
(-3.24039 1.74784e-15 1.81441)
(-6.24087 -3.03598e-15 3.53588)
(-7.76144 2.85905e-15 4.38665)
(-6.18382 0 3.5959)
(-5.70462 -1.46959e-15 3.29955)
(-2.80075 0 1.64936)
(-2.42313 1.33481e-15 1.41469)
(-12.4718 2.3423e-17 1.7532)
(-12.9521 -1.03183e-17 2.09747)
(-11.6216 -1.25089e-17 3.89693)
(-8.85338 0 5.37406)
(-6.56285 2.61885e-17 5.02135)
(-6.70668 4.80406e-18 3.17265)
(-8.51059 0 0.611826)
(-10.749 -6.02408e-17 -2.90659)
(-13.7171 0 -7.65355)
(-16.5292 -4.46042e-17 -11.3773)
(-16.8649 0 -11.7611)
(-13.7525 0 -8.76799)
(-8.32833 0 -3.73033)
(-3.24804 0 1.32623)
(-1.34742 2.75871e-17 4.54128)
(-2.97125 0 5.74352)
(-5.59273 0 5.91245)
(-4.67735 0 7.13741)
(1.99577 5.51526e-17 9.82318)
(10.5207 -1.453e-17 12.3405)
(13.0909 0 10.4987)
(6.30344 -8.44089e-18 4.66719)
(-8.16622 0 -1.32436)
(-26.8924 -1.21875e-16 -5.9256)
(-28.7236 0 16.3249)
(18.8263 0 84.1644)
(141.242 -2.05032e-16 225.558)
(192.748 0 259.001)
(142.216 0 173.545)
(38.8549 3.62544e-16 38.4611)
(-23.226 0 -29.8873)
(-21.3393 0 -27.8246)
(-8.03625 0 -15.7089)
(-6.00004 0 -12.3147)
(-9.8239 -2.94798e-16 -13.1478)
(-11.2717 0 -12.7479)
(-8.65292 0 -10.0909)
(-4.89187 3.7588e-16 -7.04857)
(-2.92419 0 -4.82421)
(-2.49577 5.14839e-16 -3.52641)
(-2.3204 2.85058e-18 -2.23531)
(-0.968761 1.30135e-16 -0.859086)
(0.742166 0 0.570346)
(2.4219 0 1.44345)
(2.87232 -2.84761e-17 1.81285)
(2.7899 0 1.61771)
(2.27244 -2.90124e-16 1.11486)
(2.09764 0 0.605075)
(2.19578 1.63686e-18 0.0312436)
(1.8143 0 -0.551344)
(1.25281 0 -1.44128)
(-0.174335 0 -1.92003)
(-0.544485 -1.62405e-16 -2.00441)
(-0.663602 0 -1.29981)
(0.103307 0 -0.557967)
(0.229538 0 0.285789)
(-0.611927 0 0.956579)
(-2.12395 1.76612e-16 1.36734)
(-3.69979 0 1.42073)
(-2.50095 -2.38784e-18 1.07923)
(0.507968 0 0.668092)
(4.32155 1.27585e-17 -0.10118)
(4.36767 -3.53092e-16 -1.58603)
(1.99474 0 -3.80913)
(0.801482 -5.57475e-16 -4.80268)
(2.52235 -2.59983e-16 -4.80353)
(8.69163 0 -6.19196)
(13.4947 4.82416e-16 -8.28826)
(16.8868 0 -8.8269)
(10.0154 0 -4.03033)
(-18.7255 0 13.7949)
(-45.4831 0 27.1023)
(-62.1968 4.4757e-18 41.8034)
(-201.575 5.46022e-16 114.041)
(-1.26519 0 -6.38688)
(185.119 0 -102.379)
(66.476 -3.28255e-18 -29.8112)
(-7.33015 -7.1294e-17 6.26572)
(-31.6909 -2.71827e-16 17.9435)
(-28.4371 0 14.8142)
(-3.84716 0 -7.31087)
(100.154 0 -64.4095)
(217.66 -1.55451e-15 -128.974)
(228.144 1.74835e-19 -126.896)
(146.223 2.10272e-16 -76.3361)
(13.5352 0 -3.16992)
(-87.537 -7.2976e-16 56.2227)
(-158.982 1.00492e-15 93.463)
(-172.287 0 98.2603)
(-136.45 0 75.2533)
(-91.4009 1.17845e-15 49.6605)
(-52.6453 0 28.2275)
(-20.6114 1.10393e-15 10.5174)
(1.30717 1.40616e-19 -1.07553)
(7.6755 6.68256e-16 -3.96815)
(-8.56905 -7.1008e-16 5.70633)
(-22.5754 0 12.7438)
(-1.50285 1.806e-15 -1.28256)
(50.7364 -2.41102e-15 -31.2717)
(75.9874 6.15148e-15 -43.3758)
(37.698 0 -19.1178)
(-14.0429 -4.3904e-15 10.2701)
(-27.3888 0 15.6497)
(-18.0876 -3.89522e-15 9.70462)
(-9.34267 3.06288e-15 4.91248)
(-3.56179 0 1.8196)
(0.340656 2.3098e-15 -0.397252)
(4.59471 0 -3.0798)
(7.46279 2.5736e-15 -4.48668)
(9.81095 -1.36087e-15 -5.60354)
(8.08791 0 -4.45933)
(5.43159 0 -2.6836)
(-1.56867 0 1.23381)
(-6.80663 -7.63473e-19 4.12655)
(-11.1634 2.83584e-15 6.5587)
(-13.3125 -2.6683e-15 7.62941)
(-10.6964 0 6.17366)
(-9.72835 -1.37044e-15 5.53616)
(-5.21336 0 2.97873)
(-4.49488 -3.23376e-19 2.60789)
(-11.7559 -1.27164e-17 4.14429)
(-12.302 -2.21642e-18 3.50012)
(-12.3325 7.74679e-18 4.46277)
(-11.7916 3.44286e-18 5.43166)
(-11.9307 1.35062e-17 4.55515)
(-13.5376 7.15687e-17 2.57669)
(-15.6669 0 0.502507)
(-17.5851 0 -2.57892)
(-19.3043 0 -6.84553)
(-19.7074 4.22476e-17 -9.64584)
(-17.3127 0 -8.82512)
(-12.285 0 -4.91045)
(-6.32721 0 0.310462)
(-1.89664 0 4.91451)
(-0.839215 0 7.80409)
(-2.66802 3.101e-17 9.2487)
(-4.64697 -1.4082e-17 10.1658)
(-3.29303 0 11.5624)
(2.28065 0 12.5424)
(7.62378 -1.11429e-16 11.0164)
(8.35386 1.00333e-16 6.99001)
(4.75025 -1.17634e-16 4.42435)
(-1.19385 9.78465e-17 9.24409)
(-5.60646 1.15396e-16 22.6293)
(7.18318 -7.0967e-17 52.6781)
(68.3244 5.24677e-17 116.8)
(139.057 0 188.973)
(129.328 1.26702e-16 173.547)
(70.4381 0 103.128)
(-13.409 -3.43135e-16 -10.6964)
(-34.186 0 -39.4878)
(-20.3361 0 -29.9708)
(-8.44439 0 -19.5859)
(-7.88444 2.7071e-16 -16.4505)
(-11.2249 2.78865e-16 -16.0494)
(-11.7263 0 -14.6383)
(-8.5347 0 -11.4423)
(-4.59716 -3.55437e-16 -8.0528)
(-2.57645 0 -5.51723)
(-1.90962 -7.04406e-18 -3.72349)
(-1.48697 1.81881e-16 -2.05711)
(0.0435334 0 -0.399892)
(1.68394 0 0.966879)
(3.26435 0 1.81064)
(3.48244 0 1.91254)
(3.31485 -1.57356e-16 1.69594)
(2.66038 0 1.02003)
(2.47268 3.53751e-16 0.542877)
(2.38555 3.8183e-16 -0.308536)
(1.9874 0 -0.887143)
(1.40039 0 -1.8525)
(0.136007 0 -2.14464)
(-0.151176 1.53222e-16 -2.12846)
(-0.353959 -1.06457e-16 -1.45861)
(0.279001 -1.37133e-16 -0.592521)
(0.149239 0 0.379604)
(-0.954376 -6.87197e-17 1.2982)
(-2.72957 -1.67212e-16 1.83966)
(-4.31635 0 2.00842)
(-2.90493 -1.56207e-16 1.49418)
(0.477503 0 0.571045)
(4.66635 -6.97401e-18 -0.934605)
(4.87233 3.09519e-16 -3.50643)
(4.07699 0 -4.10645)
(2.98647 2.53711e-16 -6.00497)
(5.56378 2.35953e-16 -6.68363)
(13.0282 0 -9.0424)
(19.337 0 -11.9332)
(22.8198 0 -11.9965)
(12.7067 -7.14518e-16 -4.14432)
(-28.5412 -1.88204e-16 21.4243)
(-69.1968 0 42.2644)
(-80.9174 -1.70743e-15 59.026)
(-228.359 -4.98547e-16 127.732)
(-20.2847 0 -13.8868)
(235.844 0 -133.646)
(94.9673 -6.16209e-16 -38.7279)
(-5.09569 3.62805e-19 7.98266)
(-42.9458 0 25.1733)
(-35.8278 0 17.7801)
(9.20108 0 -16.1441)
(152.847 0 -101.921)
(303.572 7.88565e-18 -182.213)
(295.721 1.69019e-16 -163.566)
(171.324 0 -84.4023)
(-5.40805 0 13.0073)
(-127.956 0 84.3265)
(-208.252 9.50699e-16 124.682)
(-222.196 0 126.644)
(-177.673 1.50716e-15 96.7364)
(-121.58 -1.10357e-15 64.899)
(-70.6834 1.34047e-15 36.865)
(-27.7889 -1.03345e-15 13.2752)
(1.7856 2.15427e-15 -2.00872)
(9.60095 -6.25399e-16 -4.85301)
(-12.2064 6.64445e-16 8.53683)
(-28.3159 0 15.7239)
(4.82708 0 -4.57387)
(73.1265 -2.2601e-15 -46.0332)
(100.233 -2.87728e-15 -57.1034)
(44.8308 -3.73175e-15 -20.9094)
(-21.3842 -1.68061e-18 15.7736)
(-36.117 0 20.7717)
(-23.6477 0 12.5267)
(-12.254 -2.86288e-15 6.29555)
(-4.50997 0 2.17721)
(0.703298 -2.15614e-15 -0.777927)
(6.41585 0 -4.16779)
(9.70904 -8.78802e-19 -5.88496)
(12.2026 0 -6.98969)
(9.11714 -1.34702e-15 -4.9886)
(4.87031 1.42186e-15 -2.43973)
(-4.45081 1.49449e-15 3.07082)
(-11.277 -1.08461e-18 6.86621)
(-16.5105 0 9.76529)
(-18.9523 2.49185e-15 10.8687)
(-15.3517 1.71071e-15 8.80102)
(-13.8112 1.27967e-15 7.78725)
(-8.01257 0 4.48723)
(-6.9227 -4.59998e-19 3.98876)
(-11.7343 0 5.2629)
(-11.6791 -1.77976e-18 4.44185)
(-11.9482 0 4.6184)
(-12.9924 -3.25282e-18 4.75755)
(-15.2322 -3.61696e-17 3.50424)
(-18.1006 -3.03194e-17 1.92824)
(-20.3947 0 1.20182)
(-21.7236 0 -0.13653)
(-22.042 2.82955e-17 -2.87154)
(-20.4962 2.61411e-17 -4.66549)
(-16.36 -2.42121e-17 -3.39608)
(-10.4636 -4.76811e-17 0.396443)
(-4.78369 -4.97833e-17 4.88528)
(-1.40208 0 8.43308)
(-1.30827 0 10.4822)
(-3.46841 -7.18267e-17 11.6027)
(-5.2662 -1.39484e-17 12.4938)
(-4.04029 0 13.5084)
(0.263702 -1.39427e-17 13.4476)
(4.05368 -5.49235e-17 10.3739)
(5.66426 -9.48561e-17 6.76972)
(5.7586 0 6.53691)
(4.74692 -9.24939e-17 13.6664)
(7.37398 5.37996e-17 31.2977)
(26.6702 6.7068e-17 62.3698)
(70.8778 -4.92439e-17 103.719)
(85.5496 0 100.848)
(56.2906 4.81293e-18 65.5174)
(0.904437 0 17.5384)
(-44.1766 -2.35713e-16 -38.0575)
(-38.6132 0 -47.6508)
(-17.8004 0 -30.3371)
(-8.1288 0 -21.7479)
(-8.86061 -2.55685e-16 -19.0538)
(-11.8437 0 -17.8467)
(-11.6086 0 -15.7302)
(-7.92421 0 -12.0762)
(-3.87852 0 -8.41318)
(-1.91077 2.52754e-16 -5.74597)
(-1.15204 -4.32847e-16 -3.70649)
(-0.635745 0 -1.90628)
(0.973784 -1.22668e-16 -0.0865703)
(2.50141 0 1.19081)
(3.9776 0 2.03274)
(3.99386 0 1.93039)
(3.77182 1.21739e-17 1.73972)
(2.98803 0 0.897916)
(2.79001 -3.33551e-16 0.452225)
(2.57255 0 -0.593293)
(2.17841 0 -1.16788)
(1.59769 -2.83983e-16 -2.18372)
(0.458054 0 -2.38221)
(0.219817 0 -2.32453)
(-0.00905503 -2.47392e-18 -1.61444)
(0.520606 1.29163e-16 -0.604345)
(0.16 0 0.482607)
(-1.18838 -8.71574e-19 1.61253)
(-3.21454 1.58263e-16 2.24889)
(-4.8389 0 2.4755)
(-3.25339 7.24211e-17 1.77956)
(0.484948 0 0.386207)
(5.08695 6.56078e-18 -1.77081)
(5.85516 -2.91127e-16 -4.94501)
(5.75842 0 -5.74215)
(5.42546 -2.08388e-16 -7.63639)
(8.92753 -2.71324e-18 -8.98189)
(17.6235 0 -12.1929)
(25.2228 0 -15.6799)
(28.4569 0 -14.8334)
(14.4841 1.34359e-15 -3.02912)
(-39.7419 2.05441e-18 31.2699)
(-95.7591 0 59.3772)
(-95.9246 1.60088e-15 73.8576)
(-198.882 9.29961e-16 108.833)
(-53.4769 0 -13.108)
(273.823 0 -159.102)
(124.776 0 -46.2238)
(-0.568146 -2.17291e-19 9.79603)
(-52.5198 0 31.8262)
(-40.4013 0 18.2768)
(27.8755 0 -33.1111)
(210.995 0 -144.773)
(383.991 6.72865e-16 -232.551)
(345.001 1.63171e-16 -187.205)
(176.34 0 -77.0895)
(-33.7682 0 38.5597)
(-165.796 0 112.089)
(-246.429 6.71644e-18 148.915)
(-260.844 0 147.479)
(-211.522 -1.41094e-15 112.814)
(-148.063 0 76.9811)
(-87.2405 -1.25452e-15 43.7935)
(-34.6474 0 15.2688)
(1.927 -1.00727e-15 -3.12524)
(10.9597 0 -5.28133)
(-15.3705 0 11.3135)
(-31.663 0 17.1504)
(12.1174 0 -12.8777)
(94.9061 2.11329e-15 -60.9681)
(120.271 0 -67.6762)
(48.3153 3.48859e-15 -19.5766)
(-28.5571 3.83877e-15 21.7724)
(-43.5475 0 24.9632)
(-28.4047 0 14.6422)
(-14.7917 0 7.30382)
(-5.29384 0 2.33716)
(1.02871 1.43102e-18 -1.20989)
(7.85704 0 -5.14563)
(11.2624 -2.24299e-15 -6.8625)
(13.5219 0 -7.67734)
(8.8979 2.5148e-15 -4.62954)
(3.27576 -1.32798e-15 -0.871171)
(-8.23579 -1.39573e-15 5.63828)
(-16.3324 -1.42243e-15 10.0543)
(-22.126 0 13.1741)
(-24.6105 0 14.0932)
(-20.1887 -3.19234e-15 11.4857)
(-18.0302 1.19149e-15 10.0515)
(-11.2461 6.81512e-16 6.21456)
(-9.73197 -5.42391e-16 5.58279)
(-11.9873 0 5.61962)
(-11.3948 2.57305e-17 5.03926)
(-11.3533 0 4.95732)
(-12.7443 0 4.75804)
(-15.6767 0 3.54351)
(-18.9673 0 2.44435)
(-21.2059 0 2.98469)
(-22.1814 -1.75168e-17 3.61918)
(-21.8495 -2.66973e-17 2.58652)
(-19.6222 -4.39078e-17 1.40211)
(-15.1081 4.32627e-17 2.42482)
(-9.38273 4.50019e-17 5.48657)
(-4.56208 4.69893e-17 8.82143)
(-2.38516 0 11.0862)
(-3.19445 0 12.1198)
(-5.65894 9.37658e-17 12.6667)
(-7.41723 6.58523e-17 13.2807)
(-6.53295 0 13.872)
(-3.27182 1.31606e-17 13.1409)
(0.246438 5.18428e-17 10.1652)
(3.20804 0 7.19848)
(5.74007 3.7446e-17 7.28879)
(7.09682 0 12.6691)
(11.8006 -2.89855e-17 26.8083)
(28.4745 5.25096e-18 49.8593)
(51.6955 -3.08963e-17 68.4669)
(44.6859 0 48.8779)
(7.07413 -1.17524e-16 8.23795)
(-40.4142 1.984e-16 -34.5555)
(-50.1546 3.68789e-16 -40.5582)
(-33.527 1.02968e-16 -40.8822)
(-12.0927 0 -27.2229)
(-6.69722 1.49303e-16 -21.2642)
(-8.77963 0 -19.555)
(-11.6133 0 -18.2078)
(-10.8062 0 -15.7102)
(-6.70492 0 -11.7021)
(-2.72888 0 -8.00119)
(-0.965398 -1.25091e-17 -5.44014)
(-0.271188 2.00913e-16 -3.42371)
(0.219902 0 -1.69517)
(1.80588 2.35689e-16 0.132412)
(3.17983 0 1.27367)
(4.52276 0 2.0853)
(4.36116 0 1.82175)
(4.09554 1.28326e-16 1.6682)
(3.21561 0 0.708543)
(3.0264 0 0.312173)
(2.73281 0 -0.848736)
(2.37168 0 -1.40041)
(1.82035 5.35078e-16 -2.44868)
(0.798795 0 -2.59072)
(0.612153 0 -2.4978)
(0.383624 9.66891e-17 -1.73131)
(0.825347 0 -0.586354)
(0.258449 0 0.59583)
(-1.31423 1.24676e-16 1.89705)
(-3.57477 -7.46311e-17 2.59608)
(-5.26255 0 2.83046)
(-3.55333 0 1.93684)
(0.497556 0 0.0873679)
(5.54117 -2.28891e-18 -2.66603)
(7.0646 0 -6.24155)
(7.56751 0 -7.76393)
(8.21906 3.78934e-16 -9.60434)
(12.6678 -4.09631e-16 -11.6454)
(22.4647 0 -15.6271)
(31.0788 0 -19.4772)
(33.7157 0 -17.22)
(15.2893 -6.3109e-16 -0.506963)
(-52.5382 1.6395e-16 43.4957)
(-123.797 3.07002e-16 77.4153)
(-105.498 -1.50186e-15 82.5548)
(-97.9628 -4.33328e-16 50.1771)
(-107.434 1.95588e-15 -0.531081)
(297.553 0 -179.382)
(155.276 0 -52.4572)
(5.95722 2.88118e-17 12.0526)
(-59.735 0 37.5128)
(-41.6449 0 15.793)
(53.2993 0 -56.3846)
(272.655 0 -192.22)
(455.558 0 -277.45)
(373.041 -3.10984e-16 -196.041)
(162.608 0 -56.552)
(-68.4416 -2.82491e-16 67.121)
(-197.557 0 136.798)
(-272.618 8.16427e-18 166.833)
(-289.241 1.26341e-15 162.768)
(-238.695 0 124.845)
(-170.897 0 86.5919)
(-102.676 0 49.3478)
(-41.4921 0 16.7204)
(1.59178 9.37834e-16 -4.16399)
(11.8044 0 -5.30878)
(-17.7307 0 13.7758)
(-32.8696 0 16.867)
(21.0362 0 -23.486)
(115.446 0 -75.5212)
(135.724 0 -75.2801)
(48.8851 0 -15.6453)
(-35.1067 0 27.7974)
(-49.6588 -3.62911e-15 28.4275)
(-32.3957 0 16.233)
(-17.0044 0 8.02811)
(-5.98299 0 2.37872)
(1.21043 1.88052e-15 -1.61007)
(8.77479 0 -5.93435)
(12.0021 1.04702e-15 -7.39251)
(13.6967 0 -7.69182)
(7.46592 -1.86654e-18 -3.60319)
(0.464413 0 1.22784)
(-12.7956 1.29918e-15 8.65266)
(-21.7861 0 13.4626)
(-27.9393 0 16.6943)
(-30.2648 0 17.2844)
(-25.252 1.48915e-15 14.2695)
(-22.4384 -2.22227e-15 12.3927)
(-14.9743 -1.27086e-15 8.18251)
(-12.9441 -5.04984e-16 7.39097)
(-11.8755 0 5.80522)
(-11.2403 -2.50175e-17 5.64547)
(-10.9346 0 5.63814)
(-11.7529 0 5.60086)
(-14.1278 -5.27848e-18 4.87791)
(-16.9737 6.76729e-19 4.23285)
(-18.7093 -5.41563e-18 5.4419)
(-19.275 3.39431e-17 7.55817)
(-18.9905 0 7.92754)
(-17.4292 3.76617e-18 6.84531)
(-14.004 -1.92347e-17 6.97382)
(-9.51733 0 8.93502)
(-6.01664 0 11.1088)
(-5.05396 0 12.2225)
(-6.60644 0 12.3521)
(-9.25911 1.20238e-17 12.3385)
(-10.9818 1.29909e-17 12.6756)
(-10.4169 -3.55178e-17 13.0107)
(-7.79234 -1.74232e-17 12.1795)
(-4.21635 0 9.63198)
(-0.245714 -7.23021e-18 6.97052)
(3.34155 -3.52922e-17 5.96988)
(5.43697 0 8.09166)
(9.62277 -2.17901e-17 16.2411)
(19.7498 1.74941e-17 28.5314)
(26.9687 2.88309e-17 32.0239)
(10.9242 0 10.7892)
(-22.6782 0 -20.414)
(-51.7217 -1.86926e-16 -43.9173)
(-46.7183 -8.20844e-17 -36.9525)
(-23.2858 -1.2407e-16 -25.8095)
(-7.97431 0 -21.4475)
(-4.67214 -2.26327e-16 -18.3011)
(-8.17932 0 -18.5079)
(-10.5822 0 -16.9241)
(-9.35548 1.13095e-16 -14.5074)
(-4.93764 0 -10.2884)
(-1.28717 2.18578e-16 -6.88561)
(0.119042 -1.12603e-17 -4.68822)
(0.626952 -1.79547e-16 -2.92702)
(1.01531 0 -1.42841)
(2.4993 5.55781e-18 0.268096)
(3.68743 0 1.21925)
(4.8678 0 1.95279)
(4.55537 0 1.56116)
(4.257 0 1.44493)
(3.33201 0 0.436116)
(3.18 2.72131e-16 0.118673)
(2.86234 0 -1.08325)
(2.56574 0 -1.58426)
(2.07048 -2.51771e-16 -2.63484)
(1.17614 0 -2.72753)
(1.04794 -1.3703e-16 -2.59784)
(0.829654 -9.5918e-17 -1.78723)
(1.19117 1.26304e-16 -0.535098)
(0.444532 0 0.717646)
(-1.32698 -5.91944e-17 2.14951)
(-3.80424 -7.13223e-17 2.87724)
(-5.57963 0 3.07731)
(-3.80769 0 1.96882)
(0.495753 0 -0.331199)
(5.99591 2.14916e-18 -3.64476)
(8.37325 0 -7.59188)
(9.70486 0 -9.8034)
(11.3927 -1.71929e-16 -11.8717)
(16.8078 3.81596e-16 -14.6258)
(27.5116 0 -19.298)
(36.8116 0 -23.2367)
(38.502 0 -19.0347)
(15.1249 0 3.62623)
(-66.8477 1.51002e-16 58.3266)
(-151.008 -2.8785e-16 94.7137)
(-105.895 0 79.2911)
(74.329 0 -46.8301)
(-184.814 -1.83309e-15 28.7059)
(305.175 0 -194.831)
(185.422 -4.70374e-16 -57.2433)
(14.1515 2.81229e-17 15.0487)
(-64.0088 0 41.895)
(-39.0301 0 9.70139)
(84.973 0 -86.1699)
(335.675 0 -242.528)
(514.996 0 -314.094)
(378.393 1.48058e-16 -188.538)
(135.038 0 -25.0976)
(-104.639 5.41168e-16 93.3129)
(-220.835 0 156.325)
(-288.443 9.58412e-18 178.575)
(-310.155 3.57247e-18 173.601)
(-260.666 0 133.438)
(-190.6 9.07579e-16 93.7124)
(-117.419 0 53.9154)
(-48.7436 0 17.8269)
(0.475983 -1.7506e-15 -5.11467)
(12.1671 0 -5.07408)
(-19.001 0 15.7121)
(-31.6742 0 14.9455)
(32.9329 0 -32.4058)
(133.799 0 -89.0892)
(146.746 0 -79.6676)
(47.4884 0 -9.42296)
(-40.737 0 33.4621)
(-54.6477 3.39049e-15 31.1206)
(-35.7727 0 17.3037)
(-18.9851 0 8.504)
(-6.67694 0 2.34145)
(1.13934 -1.75241e-15 -1.9209)
(9.15715 -1.14916e-15 -6.30078)
(11.9056 -9.75067e-16 -7.41538)
(12.7861 1.02965e-15 -7.02829)
(5.07001 -2.23775e-18 -1.83757)
(-3.38234 -1.14963e-15 3.53487)
(-17.7662 -2.42328e-15 12.0259)
(-27.3828 0 17.0127)
(-33.8696 2.14307e-15 20.2969)
(-35.9182 2.01594e-15 20.4476)
(-30.6137 0 17.1839)
(-27.1159 1.03611e-15 14.8348)
(-19.2509 5.92414e-16 10.4284)
(-16.5679 4.71354e-16 9.41654)
(-11.362 0 6.1002)
(-10.8201 1.1709e-17 6.39901)
(-10.396 0 6.61716)
(-10.436 0 6.91678)
(-11.7509 4.9705e-18 6.92534)
(-13.7721 -6.37071e-19 6.71622)
(-14.8274 5.09761e-18 7.9082)
(-14.7871 -1.9725e-17 10.63)
(-14.6171 0 11.9258)
(-14.3215 -9.31262e-18 10.6345)
(-12.9443 3.35576e-17 9.40849)
(-10.5288 0 10.0202)
(-8.69898 -5.7702e-17 11.2568)
(-8.90257 0 11.639)
(-11.0421 -7.17431e-17 11.1984)
(-13.7945 -5.89066e-17 10.8135)
(-15.4927 -4.78191e-17 10.9898)
(-15.1964 3.34329e-17 11.2873)
(-13.0034 4.43938e-17 10.6989)
(-9.42779 0 8.67101)
(-5.11527 6.8054e-18 6.00358)
(-1.51524 0 3.4091)
(0.382105 0 2.10255)
(2.75003 1.18488e-18 4.20082)
(6.3432 -4.52466e-17 7.23079)
(3.82658 0 2.767)
(-14.4445 0 -15.1293)
(-39.6133 0 -34.424)
(-52.8503 5.42849e-18 -41.9774)
(-40.5486 -5.25583e-17 -30.7221)
(-17.5283 6.86122e-17 -18.6206)
(-4.42609 1.38335e-17 -15.3464)
(-3.17668 1.06425e-16 -14.608)
(-6.96905 -5.42875e-17 -15.4803)
(-9.77527 7.04778e-17 -15.8142)
(-7.23414 -2.64462e-17 -11.8351)
(-2.79659 0 -7.95953)
(0.235967 -2.05575e-16 -5.22804)
(1.16969 -1.89293e-16 -3.62621)
(1.41937 1.68839e-16 -2.3015)
(1.66751 0 -1.15021)
(3.00665 -1.11498e-16 0.313409)
(3.99639 -8.8606e-17 1.03312)
(5.00176 -5.42998e-17 1.64895)
(4.57506 -1.45438e-17 1.16214)
(4.26323 0 1.08618)
(3.3472 0 0.092209)
(3.26158 -1.03514e-17 -0.118912)
(2.96811 0 -1.29366)
(2.76414 0 -1.71683)
(2.34967 -2.34777e-16 -2.73581)
(1.58972 1.81357e-16 -2.78348)
(1.52243 1.28696e-16 -2.62041)
(1.32081 -2.51128e-18 -1.78423)
(1.61148 4.80177e-18 -0.455214)
(0.716143 0 0.842601)
(-1.22349 0 2.36522)
(-3.89748 1.34786e-16 3.0898)
(-5.78519 0 3.21902)
(-4.02087 0 1.88118)
(0.462799 -7.58975e-17 -0.863207)
(6.42211 0 -4.70974)
(9.72294 0 -9.0578)
(12.2081 -1.4177e-16 -11.7525)
(14.9248 1.41143e-16 -14.4394)
(21.3046 -3.56927e-16 -17.9227)
(32.692 0 -23.1267)
(42.2985 3.60612e-16 -26.8517)
(42.7207 0 -20.1419)
(13.9618 0 9.57375)
(-82.4298 -2.81882e-16 75.5132)
(-173.958 0 108.664)
(-91.3084 0 57.1637)
(287.993 0 -163.079)
(-279.531 0 75.471)
(295.5 0 -206.187)
(213.828 4.40461e-16 -60.3907)
(23.6265 3.38567e-19 19.0197)
(-64.8907 -2.0386e-16 44.6672)
(-31.9882 1.02858e-16 -0.594315)
(122.069 0 -122.153)
(397.411 0 -293.746)
(559.367 0 -339.847)
(361.375 0 -164.518)
(101.168 0 11.7875)
(-126.816 9.39426e-18 132.58)
(-235.182 0 170.679)
(-296.313 -7.5081e-16 186.116)
(-326.356 4.34768e-18 182.063)
(-278.755 0 139.568)
(-207.455 -8.4858e-16 98.6214)
(-131.947 0 57.8651)
(-56.8723 7.71926e-16 18.8195)
(-1.66372 3.70207e-18 -5.8036)
(12.2074 0 -4.4455)
(-18.9831 0 16.9456)
(-28.3145 0 11.6104)
(44.1358 0 -44.3436)
(149.507 1.73602e-15 -101.282)
(153.535 0 -81.0273)
(44.7414 0 -1.93909)
(-45.1497 3.13205e-15 38.7836)
(-58.6656 0 33.2392)
(-38.6508 -2.76594e-15 17.9528)
(-20.809 2.16585e-15 8.80271)
(-7.4633 0 2.2883)
(0.740416 3.27018e-15 -2.08375)
(8.7619 3.35774e-18 -6.52543)
(10.9984 1.81908e-15 -6.95964)
(10.9319 -9.61395e-16 -5.77125)
(1.88773 -1.01945e-15 0.262408)
(-7.49141 1.07332e-15 6.63226)
(-22.9193 1.12989e-15 15.5384)
(-32.9268 1.1494e-15 20.5499)
(-39.8505 -2.00059e-15 23.9393)
(-41.5917 -1.88185e-15 23.5943)
(-36.3403 -1.28747e-15 20.2747)
(-32.124 -9.6083e-16 17.4255)
(-24.1375 0 12.9784)
(-20.6095 0 11.6542)
(-10.4893 0 6.62068)
(-9.90675 8.44472e-18 7.31908)
(-9.48409 0 7.65981)
(-9.07884 0 8.19341)
(-9.54437 0 8.91025)
(-10.7891 0 9.01598)
(-11.3547 2.54864e-18 9.65395)
(-10.8426 3.11401e-18 12.1436)
(-10.5686 -5.13704e-18 13.9245)
(-11.2299 2.14614e-17 12.4476)
(-11.8609 -3.15464e-17 9.80756)
(-11.6807 0 8.93908)
(-11.5702 5.42419e-17 9.45003)
(-12.8038 0 9.59105)
(-15.4109 6.7444e-17 9.01514)
(-18.2813 6.69263e-17 8.52169)
(-20.0848 0 8.68131)
(-20.1502 0 9.10558)
(-18.4531 -2.63187e-17 8.91898)
(-15.201 0 7.42534)
(-11.2224 0 4.70515)
(-8.21331 1.90856e-17 0.814676)
(-6.94378 0 -3.15092)
(-6.49198 0 -5.79152)
(-7.32957 2.26771e-17 -8.64574)
(-14.3671 0 -16.0889)
(-30.5994 0 -28.7258)
(-46.5212 0 -37.5626)
(-48.6138 6.92292e-17 -34.9263)
(-32.7605 0 -21.9818)
(-12.0955 6.22859e-17 -11.1111)
(-1.6052 5.67105e-17 -8.8336)
(-1.8268 -2.42496e-17 -10.1141)
(-5.74227 5.10189e-17 -11.003)
(-7.51546 -9.95255e-17 -11.4065)
(-3.9801 -7.51148e-17 -7.58125)
(-0.674916 0 -4.98405)
(1.60202 0 -3.20058)
(1.99717 -1.61383e-16 -2.41325)
(1.98443 1.54069e-16 -1.63047)
(2.10312 0 -0.890081)
(3.28417 0 0.265609)
(4.08458 -8.47889e-18 0.729861)
(4.92237 5.0996e-17 1.20104)
(4.4278 1.36578e-17 0.65209)
(4.12991 -5.33251e-17 0.621832)
(3.2764 0 -0.302534)
(3.28553 -1.12143e-17 -0.384417)
(3.05844 0 -1.47291)
(2.96847 0 -1.79597)
(2.65322 2.20358e-16 -2.75242)
(2.03005 -1.70202e-16 -2.75941)
(2.02222 0 -2.56981)
(1.84316 8.68742e-17 -1.72827)
(2.07545 4.94439e-18 -0.353364)
(1.06749 0 0.964615)
(-1.00441 0 2.53993)
(-3.8521 -1.28423e-16 3.23414)
(-5.87788 0 3.26176)
(-4.19946 0 1.68511)
(0.379967 1.38725e-16 -1.49593)
(6.78522 0 -5.85743)
(11.0809 0 -10.6663)
(14.7423 2.65172e-16 -14.1281)
(18.7505 -1.32283e-16 -17.2998)
(26.0258 1.67261e-16 -21.626)
(37.961 0 -26.9143)
(47.3992 -3.37861e-16 -30.2042)
(46.2902 0 -20.4064)
(11.8477 5.14056e-16 17.512)
(-98.361 1.31474e-16 94.7705)
(-188.118 0 115.561)
(-54.0769 0 10.4204)
(477.502 3.53739e-16 -259.764)
(-372.709 1.54106e-15 131.238)
(269.824 0 -215.352)
(239.2 0 -61.8752)
(33.9031 -4.96896e-17 24.111)
(-62.0739 1.90771e-16 45.5444)
(-20.0148 -1.96509e-16 -15.5983)
(163.484 0 -163.39)
(454.963 0 -343.853)
(586.455 0 -352.428)
(324.367 0 -125.376)
(71.6071 0 47.7751)
(-162.731 2.50024e-17 129.587)
(-243.262 0 180.533)
(-299.527 0 191.36)
(-340.551 5.18426e-18 189.701)
(-294.141 0 143.855)
(-221.528 -7.95734e-16 101.576)
(-146.802 0 61.4061)
(-66.3646 -7.21421e-16 19.9331)
(-5.14367 4.29692e-18 -6.16167)
(11.657 0 -3.9493)
(-17.6206 0 17.3637)
(-23.0814 0 6.97728)
(55.5482 0 -56.1331)
(162.185 5.01224e-18 -111.763)
(156.52 2.0549e-15 -79.5526)
(41.1466 -2.65511e-15 5.69151)
(-48.383 -2.9253e-15 43.5483)
(-61.9482 0 34.8532)
(-41.1484 2.58307e-15 18.2892)
(-22.5748 -2.02254e-15 8.94874)
(-8.42158 0 2.26433)
(-0.0481085 -1.52543e-15 -2.06689)
(7.87719 1.99352e-15 -6.10557)
(9.42385 -8.48322e-16 -6.08476)
(8.36541 0 -4.03816)
(-1.5402 9.45962e-16 2.86568)
(-11.864 0 9.62338)
(-27.9072 0 19.0404)
(-38.2067 -1.07294e-15 23.9846)
(-45.7989 0 27.58)
(-47.2948 0 26.7394)
(-42.4848 1.20171e-15 23.572)
(-37.5143 8.96802e-16 20.1863)
(-29.6815 5.09769e-16 15.8579)
(-25.0682 -4.07481e-16 14.0944)
(-9.43537 0 7.03126)
(-8.79888 -7.93679e-18 7.95506)
(-8.47392 -1.06891e-17 8.27925)
(-8.03206 0 8.87942)
(-8.09033 0 10.086)
(-8.75553 0 10.326)
(-9.1579 -2.39481e-18 10.1972)
(-8.69588 0 11.9743)
(-8.3474 4.82626e-18 13.9049)
(-9.29515 0 12.489)
(-11.089 0 8.84684)
(-12.5384 -4.078e-17 6.63522)
(-13.7078 0 6.53683)
(-15.5775 -5.90984e-17 6.76148)
(-18.4152 6.29189e-17 6.406)
(-21.4232 -6.28524e-17 6.03018)
(-23.5569 0 6.27336)
(-24.2681 4.5479e-17 6.8897)
(-23.389 0 7.13584)
(-20.9429 4.44036e-17 6.21076)
(-17.8586 0 3.66886)
(-15.7044 -1.79255e-17 -0.72482)
(-15.0472 1.32758e-17 -6.02911)