/*--------------------------------*- C++ -*----------------------------------*\
| =========                 |                                                 |
| \\      /  F ield         | OpenFOAM: The Open Source CFD Toolbox           |
|  \\    /   O peration     | Version:  2412                                  |
|   \\  /    A nd           | Website:  www.openfoam.com                      |
|    \\/     M anipulation  |                                                 |
\*---------------------------------------------------------------------------*/
FoamFile
{
    version     2.0;
    format      ascii;
    arch        "LSB;label=32;scalar=64";
    class       volVectorField;
    location    "1.75";
    object      U;
}
// * * * * * * * * * * * * * * * * * * * * * * * * * * * * * * * * * * * * * //

dimensions      [0 1 -1 0 0 0 0];

internalField   nonuniform List<vector> 
12600
(
(18.7144 1.22771e-21 2.0915)
(11.6054 1.60648e-20 0.449898)
(7.34354 1.88909e-20 -0.477688)
(5.08528 0 -0.708668)
(3.9739 1.70778e-20 -0.681767)
(3.33395 1.59049e-20 -0.607149)
(2.89314 0 -0.539539)
(2.56218 0 -0.484155)
(2.30272 -4.78157e-20 -0.438741)
(2.09269 0 -0.401028)
(1.91838 2.00561e-20 -0.369176)
(1.77087 1.83643e-20 -0.341859)
(1.64407 -1.68234e-20 -0.31813)
(1.53364 0 -0.297294)
(1.43639 -1.40995e-20 -0.278826)
(1.34996 0 -0.262326)
(1.2725 4.73725e-20 -0.247477)
(1.20259 0 -0.234031)
(1.13911 -1.98234e-20 -0.221786)
(1.08114 -1.81282e-20 -0.210579)
(1.02794 1.65465e-20 -0.200275)
(0.978911 5.45426e-24 -0.190763)
(0.933538 0 -0.181949)
(0.891398 -2.49496e-20 -0.173755)
(0.852132 0 -0.166112)
(0.815432 0 -0.158963)
(0.781037 -1.84836e-20 -0.152259)
(0.748717 0 -0.145957)
(0.718276 4.02788e-24 -0.140019)
(0.689541 1.33428e-20 -0.134412)
(0.662359 1.18738e-20 -0.129106)
(0.636596 1.05132e-20 -0.124077)
(0.612134 -9.25326e-21 -0.119302)
(0.588867 -1.61741e-20 -0.114759)
(0.5667 -1.40162e-20 -0.110431)
(0.545548 1.201e-20 -0.106301)
(0.525334 0 -0.102355)
(0.505988 -8.47334e-21 -0.0985787)
(0.487449 0 -0.0949602)
(0.469659 5.4524e-21 -0.0914885)
(0.452566 0 -0.0881533)
(0.436122 1.74564e-23 -0.0849453)
(0.420284 0 -0.0818561)
(0.405012 1.58995e-23 -0.0788779)
(0.390268 -4.66117e-22 -0.0760033)
(0.376018 2.18851e-21 -0.0732257)
(0.362231 -3.78889e-21 -0.0705391)
(0.348876 0 -0.0679373)
(0.335928 0 -0.0654153)
(0.323358 -7.73959e-21 -0.0629678)
(0.311145 -1.76336e-20 -0.0605904)
(0.299264 -1.95748e-20 -0.0582782)
(0.287696 1.94e-23 -0.0560277)
(0.276418 -2.2856e-20 -0.0538341)
(0.265416 0 -0.0516948)
(0.254665 2.54822e-20 -0.049605)
(0.244157 2.65561e-20 -0.0475631)
(0.233866 2.74755e-20 -0.0455639)
(0.223789 0 -0.043607)
(0.213898 0 -0.0416867)
(0.204196 0 -0.0398037)
(0.194652 -6.00252e-20 -0.0379518)
(0.185277 0 -0.0361331)
(0.176032 0 -0.0343402)
(0.16694 1.23385e-19 -0.0325774)
(0.157954 0 -0.0308354)
(0.14911 0 -0.0291214)
(0.140349 0 -0.0274239)
(0.131724 -1.23523e-19 -0.025753)
(0.123164 1.22921e-19 -0.0240949)
(0.114739 1.22115e-19 -0.0224632)
(0.106364 2.32779e-23 -0.0208414)
(0.0981314 -1.19895e-19 -0.0192473)
(0.08994 0 -0.0176613)
(0.0819061 1.16976e-19 -0.0161058)
(0.0739141 0 -0.0145584)
(0.0661002 0 -0.0130453)
(0.0583435 0 -0.0115432)
(0.0507865 2.81611e-23 -0.0100794)
(0.0433294 2.14462e-19 -0.00863485)
(0.0360768 2.0993e-19 -0.00722932)
(0.0290237 -2.05108e-19 -0.00586217)
(0.0221092 -2.00227e-19 -0.00452127)
(0.0156321 0 -0.00326446)
(0.00902337 0 -0.00198198)
(0.00339868 3.69224e-19 -0.000888432)
(-0.00299297 -7.16617e-19 0.000352816)
(-0.0076345 6.94718e-19 0.00125768)
(-0.0129565 3.36107e-19 0.00229177)
(-0.0195996 0 0.00355893)
(-0.0150332 -6.28841e-19 0.00273522)
(-0.040358 2.99468e-19 0.00752293)
(-0.00577377 -2.95598e-19 0.00101193)
(-0.0572755 5.44063e-19 0.0108453)
(-0.016458 0 0.00277989)
(-0.0346395 0 0.00698027)
(-0.0868243 0 0.0158224)
(0.0653388 0 -0.0117579)
(-0.224508 0 0.0425338)
(0.159502 0 -0.0303341)
(-0.189878 -3.18323e-19 0.0371007)
(-0.0391347 -9.26686e-19 0.00542055)
(0.0419417 -6.9165e-19 -0.00608855)
(-0.368584 0 0.0688177)
(0.257138 0 -0.0484723)
(-0.474939 0 0.090727)
(0.297622 -8.32796e-19 -0.0570675)
(-0.339438 -7.51112e-19 0.0665894)
(-0.0819027 7.57163e-19 0.0116029)
(0.153765 0 -0.0256174)
(-0.87478 -9.9867e-19 0.166114)
(0.317368 0 -0.0634225)
(-0.170743 -8.95324e-19 0.0348214)
(0.0765052 1.10025e-18 -0.0153767)
(-0.0950924 -8.40317e-19 0.0183311)
(-0.109129 -1.00289e-18 0.0186185)
(0.266864 9.0508e-19 -0.0500643)
(-0.269728 2.74773e-23 0.0526647)
(-0.0249459 7.97466e-19 0.00290093)
(0.126397 0 -0.0247742)
(29.1155 -1.23937e-21 4.02133)
(25.0767 0 1.85496)
(20.2206 -1.91197e-20 -0.214785)
(16.0602 0 -1.21179)
(13.1054 -1.73047e-20 -1.50673)
(11.0658 -3.03861e-20 -1.51764)
(9.59562 -1.40661e-20 -1.44008)
(8.48507 0 -1.34261)
(7.61329 3.55702e-22 -1.24736)
(6.90756 -2.18736e-20 -1.16039)
(6.32234 2.00841e-20 -1.08241)
(5.82763 1.84386e-20 -1.01266)
(5.40286 -1.69255e-20 -0.950169)
(5.03339 1.55332e-20 -0.893943)
(4.70847 2.85583e-20 -0.843128)
(4.42005 0 -0.796992)
(4.16194 -6.47247e-23 -0.754916)
(3.92932 2.19389e-20 -0.716381)
(3.71835 2.01119e-20 -0.680948)
(3.52596 0 -0.648245)
(3.34965 0 -0.617959)
(3.18734 1.52924e-20 -0.589822)
(3.03734 0 -0.563603)
(2.89819 1.26476e-20 -0.539103)
(2.76869 -2.29327e-20 -0.516152)
(2.6478 0 -0.4946)
(2.53463 1.87341e-20 -0.474316)
(2.4284 0 -0.455185)
(2.32847 -1.51215e-20 -0.437107)
(2.23424 -2.70312e-20 -0.419991)
(2.1452 -2.40508e-20 -0.403758)
(2.0609 -1.06412e-20 -0.388337)
(1.98094 9.36339e-21 -0.373665)
(1.90496 3.27414e-20 -0.359683)
(1.83265 2.8367e-20 -0.34634)
(1.76372 0 -0.333589)
(1.69792 0 -0.321388)
(1.63501 -1.72093e-23 -0.309699)
(1.57478 0 -0.298485)
(1.51704 -5.50442e-21 -0.287715)
(1.46162 0 -0.277359)
(1.40836 -5.82871e-21 -0.26739)
(1.35711 0 -0.257782)
(1.30773 -1.45953e-21 -0.248513)
(1.26011 0 -0.239562)
(1.21413 -2.2037e-21 -0.230907)
(1.16968 0 -0.222531)
(1.12667 0 -0.214416)
(1.085 6.55042e-21 -0.206547)
(1.04459 0 -0.198907)
(1.00536 0 -0.191484)
(0.967228 0 -0.184262)
(0.930136 2.13653e-20 -0.177231)
(0.894004 4.57978e-20 -0.170377)
(0.858786 0 -0.163691)
(0.824403 0 -0.157159)
(0.790823 -2.65316e-20 -0.150775)
(0.757967 -2.74741e-20 -0.144525)
(0.725817 0 -0.138406)
(0.694289 0 -0.132401)
(0.663386 0 -0.126513)
(0.633009 0 -0.120722)
(0.603186 -6.04809e-20 -0.115035)
(0.573803 6.09869e-20 -0.109427)
(0.544919 -1.22682e-19 -0.103915)
(0.516395 0 -0.0984664)
(0.488328 0 -0.0931069)
(0.460548 0 -0.0877966)
(0.433201 4.71852e-23 -0.0825719)
(0.406078 -1.21746e-19 -0.0773837)
(0.379381 -1.20837e-19 -0.0722815)
(0.352859 2.39384e-19 -0.0672056)
(0.326779 3.56448e-23 -0.0622203)
(0.300846 -1.16899e-19 -0.0572545)
(0.27539 -1.15311e-19 -0.0523888)
(0.250082 0 -0.0475409)
(0.225308 0 -0.0428063)
(0.200727 0 -0.0380963)
(0.17674 2.14865e-19 -0.033514)
(0.153073 0 -0.0289783)
(0.130013 0 -0.024576)
(0.107569 2.00743e-19 -0.0202741)
(0.0855426 1.95756e-19 -0.0160726)
(0.0648336 0 -0.0121032)
(0.0437601 0 -0.00808617)
(0.0256124 0 -0.0046112)
(0.00523529 6.97513e-19 -0.000722088)
(-0.00987257 -4.05934e-23 0.00214733)
(-0.0272618 3.26409e-19 0.0055194)
(-0.0473958 -3.14945e-19 0.00920898)
(-0.037404 6.09436e-19 0.00755208)
(-0.109657 2.89856e-19 0.0210679)
(-0.0132374 5.71721e-19 0.00264265)
(-0.163706 0 0.0320473)
(-0.0413723 0 0.0068402)
(-0.106499 0 0.0225251)
(-0.238907 0 0.043288)
(0.171297 4.7261e-19 -0.030105)
(-0.644042 0 0.122816)
(0.462636 0 -0.0904233)
(-0.577552 -3.05293e-19 0.116448)
(-0.0604984 4.43796e-19 0.00480414)
(0.0775165 1.32426e-18 -0.00676062)
(-1.03433 -6.89865e-19 0.194377)
(0.709385 0 -0.135796)
(-1.40798 0 0.27173)
(0.887688 0 -0.17448)
(-1.04212 3.57753e-19 0.209344)
(-0.102452 -7.20596e-19 0.00765349)
(0.343295 0 -0.0499201)
(-2.50411 1.89655e-18 0.480458)
(0.984681 1.34165e-18 -0.204246)
(-0.601686 1.69897e-18 0.121577)
(0.273432 0 -0.054725)
(-0.278539 0 0.0570029)
(-0.239883 -9.48503e-19 0.0391536)
(0.738614 0 -0.139275)
(-0.827548 -7.06205e-19 0.164319)
(0.00135888 -7.52786e-19 -0.00749178)
(0.398743 0 -0.0791077)
(31.8589 0 3.8922)
(31.0451 0 2.81457)
(28.5177 -1.29532e-20 1.02067)
(25.1787 0 -0.384364)
(21.9317 0 -1.22697)
(19.1633 1.51048e-20 -1.65093)
(16.9091 1.33207e-20 -1.81882)
(15.0872 0 -1.85027)
(13.6022 4.20237e-22 -1.81654)
(12.374 2.07222e-20 -1.75408)
(11.3423 -3.7846e-20 -1.68036)
(10.4628 -1.74705e-20 -1.60371)
(9.70345 1.14533e-22 -1.52812)
(9.0404 -1.47189e-20 -1.45544)
(8.45577 -1.35041e-20 -1.38644)
(7.93588 1.23344e-20 -1.3214)
(7.47006 -2.27003e-20 -1.26029)
(7.04992 -2.07902e-20 -1.20295)
(6.66873 0 -1.14918)
(6.32104 0 -1.09871)
(6.0024 1.58532e-20 -1.05132)
(5.70913 1.44594e-20 -1.00675)
(5.43815 0 -0.964788)
(5.18689 0 -0.925222)
(4.95313 2.17301e-20 -0.887861)
(4.73503 0 -0.852532)
(4.53095 -3.54964e-20 -0.819075)
(4.33952 1.59743e-20 -0.787347)
(4.15952 0 -0.757217)
(3.9899 1.28077e-20 -0.728565)
(3.82973 1.13959e-20 -0.701285)
(3.67817 0 -0.675276)
(3.53452 -8.88291e-21 -0.65045)
(3.39812 -1.55148e-20 -0.626724)
(3.26839 1.19945e-23 -0.604023)
(3.14481 0 -0.582278)
(3.02691 0 -0.561426)
(2.91427 8.12287e-21 -0.541409)
(2.80652 0 -0.522173)
(2.70329 0 -0.503668)
(2.60428 0 -0.485849)
(2.50918 0 -0.468672)
(2.41775 0 -0.4521)
(2.32972 0 -0.436094)
(2.24489 0 -0.420621)
(2.16303 2.04284e-21 -0.405648)
(2.08396 -3.55496e-21 -0.391146)
(2.0075 0 -0.377086)
(1.93348 -6.19731e-21 -0.363443)
(1.86175 0 -0.35019)
(1.79216 0 -0.337307)
(1.72457 1.85023e-20 -0.324767)
(1.65886 0 -0.312555)
(1.5949 -2.16378e-20 -0.300644)
(1.5326 2.29126e-20 -0.289024)
(1.47182 0 -0.277667)
(1.4125 2.50782e-20 -0.266568)
(1.35449 0 -0.255697)
(1.29777 0 -0.245054)
(1.24218 0 -0.234608)
(1.18772 5.56126e-20 -0.224366)
(1.13423 5.64443e-20 -0.214288)
(1.08174 2.83783e-23 -0.204394)
(1.03006 -1.15151e-19 -0.194636)
(0.979269 2.48846e-23 -0.185046)
(0.929146 0 -0.175564)
(0.879842 0 -0.166239)
(0.83107 -1.159e-19 -0.156997)
(0.783065 3.79909e-23 -0.147905)
(0.735479 0 -0.138874)
(0.688638 0 -0.129995)
(0.642128 -1.12854e-19 -0.121157)
(0.596379 2.8662e-23 -0.112479)
(0.550908 2.66693e-23 -0.103829)
(0.506249 0 -0.0953562)
(0.461867 0 -0.0869064)
(0.418381 -2.10232e-19 -0.0786573)
(0.375246 2.06328e-19 -0.07044)
(0.333102 0 -0.06245)
(0.29152 0 -0.0545252)
(0.250948 0 -0.0468421)
(0.211431 0 -0.039308)
(0.172615 0 -0.0319698)
(0.136014 0 -0.0249884)
(0.0988439 0 -0.0179742)
(0.0665419 0 -0.0118176)
(0.0306032 -6.55765e-19 -0.00502574)
(0.00351244 -3.17471e-19 5.78423e-05)
(-0.0276891 -3.06782e-19 0.00616839)
(-0.0619529 2.95947e-19 0.0120856)
(-0.0502119 -5.72526e-19 0.0109482)
(-0.166543 -2.7226e-19 0.0316745)
(-0.0151975 -2.68449e-19 0.00354057)
(-0.261367 0 0.0516143)
(-0.0580149 0 0.00819485)
(-0.179692 0 0.0404932)
(-0.371335 0 0.0629876)
(0.255377 -4.43386e-19 -0.0391426)
(-1.037 0 0.193413)
(0.749454 0 -0.147369)
(-0.971934 2.86251e-19 0.202183)
(-0.0288136 0 -0.0150432)
(0.0684736 -6.208e-19 0.0126861)
(-1.63231 6.46484e-19 0.297129)
(1.09935 0 -0.204998)
(-2.32785 0 0.447182)
(1.47036 0 -0.293322)
(-1.76972 3.3511e-19 0.364957)
(0.0166902 0 -0.0409487)
(0.426427 -4.75832e-19 -0.0279037)
(-4.00873 -9.47098e-22 0.757841)
(1.66896 -1.25564e-18 -0.36375)
(-1.1175 -1.59053e-18 0.233589)
(0.527133 0 -0.109794)
(-0.459059 7.4452e-19 0.0986262)
(-0.289965 8.87211e-19 0.0328335)
(1.15247 8.01354e-19 -0.208933)
(-1.39301 0 0.282136)
(0.101064 7.03883e-19 -0.0445473)
(0.688875 0 -0.139587)
(32.3817 0 2.95062)
(32.9474 0 2.76439)
(32.394 1.22451e-20 1.72026)
(30.7519 0 0.519604)
(28.5006 -1.22916e-20 -0.484913)
(26.0867 2.50041e-20 -1.20728)
(23.7698 0 -1.66991)
(21.6657 -2.18299e-20 -1.93378)
(19.8079 2.09322e-20 -2.06281)
(18.1868 1.89315e-20 -2.10702)
(16.7749 1.77941e-20 -2.1002)
(15.5411 -1.61748e-20 -2.0636)
(14.4569 1.50588e-20 -2.01014)
(13.4981 -2.74559e-20 -1.94766)
(12.6445 0 -1.88087)
(11.88 -2.32681e-20 -1.81265)
(11.1912 0 -1.74472)
(10.5673 0 -1.67815)
(9.99937 0 -1.61355)
(9.48002 1.63727e-20 -1.55125)
(9.00311 -3.42405e-23 -1.49142)
(8.56349 -2.60555e-23 -1.43411)
(8.1568 1.24346e-20 -1.37931)
(7.77935 0 -1.32695)
(7.42799 0 -1.27695)
(7.09998 0 -1.2292)
(6.79299 3.35567e-20 -1.1836)
(6.50497 -6.06051e-24 -1.14002)
(6.23414 0 -1.09837)
(5.97893 0 -1.05853)
(5.73796 0 -1.0204)
(5.51001 0 -0.983876)
(5.294 1.68023e-20 -0.948869)
(5.08894 0 -0.91529)
(4.89399 -1.27207e-20 -0.883055)
(4.70835 0 -0.852084)
(4.53133 0 -0.822305)
(4.36228 -7.70202e-21 -0.793648)
(4.20063 0 -0.766048)
(4.04585 0 -0.739444)
(3.89747 3.75464e-21 -0.71378)
(3.75504 -5.28568e-21 -0.689001)
(3.61817 0 -0.665058)
(3.48647 -1.37099e-21 -0.641903)
(3.35963 0 -0.619492)
(3.23731 -3.84043e-21 -0.597781)
(3.11923 1.87852e-23 -0.576733)
(3.00511 0 -0.556309)
(2.8947 0 -0.536475)
(2.78777 6.88948e-21 -0.517194)
(2.6841 1.57077e-20 -0.498439)
(2.58347 -3.49126e-20 -0.480174)
(2.48571 0 -0.462377)
(2.39061 -2.03777e-20 -0.445012)
(2.29803 -2.16286e-20 -0.428064)
(2.20777 -2.2683e-20 -0.411495)
(2.11972 -2.3626e-20 -0.395297)
(2.03369 0 -0.379428)
(1.94961 0 -0.36389)
(1.86726 -5.14529e-20 -0.348636)
(1.78664 -1.04883e-19 -0.333677)
(1.70748 -5.32366e-20 -0.318958)
(1.62985 3.04403e-23 -0.304504)
(1.55346 5.42765e-20 -0.290249)
(1.47843 5.45638e-20 -0.276237)
(1.40441 0 -0.262383)
(1.33163 0 -0.248756)
(1.25968 1.09221e-19 -0.23525)
(1.18886 2.17527e-19 -0.221963)
(1.1187 0 -0.208763)
(1.04964 1.07252e-19 -0.195783)
(0.981094 1.06223e-19 -0.182862)
(0.913654 1.05077e-19 -0.170173)
(0.84665 2.07423e-19 -0.157522)
(0.780811 0 -0.145127)
(0.715395 0 -0.132762)
(0.651252 1.97833e-19 -0.120686)
(0.587634 -3.88209e-19 -0.108651)
(0.525408 -1.90241e-19 -0.0969445)
(0.464005 0 -0.0853222)
(0.404016 0 -0.074054)
(0.345538 0 -0.0629811)
(0.288054 0 -0.0522095)
(0.233689 0 -0.0419099)
(0.178585 0 -0.0316158)
(0.130281 -3.17771e-19 -0.0224717)
(0.0770012 3.93992e-23 -0.0125054)
(0.0361855 2.98098e-19 -0.00494252)
(-0.0107724 0 0.00427073)
(-0.0600426 2.77787e-19 0.0122962)
(-0.0504554 2.68701e-19 0.0128142)
(-0.208021 0 0.0393621)
(-0.00952868 -2.51889e-19 0.00368809)
(-0.347116 -4.62781e-19 0.0694465)
(-0.0650154 0 0.00738307)
(-0.251501 0 0.0601929)
(-0.482171 0 0.0768058)
(0.31825 -4.15939e-19 -0.0410799)
(-1.39745 0 0.25626)
(1.01392 0 -0.200807)
(-1.36554 2.6822e-19 0.291817)
(0.0532854 -3.89232e-19 -0.0490422)
(0.0175334 0 0.0479471)
(-2.15156 0 0.381938)
(1.41809 0 -0.258453)
(-3.21976 0 0.616498)
(2.03045 0 -0.411291)
(-2.51316 -1.26276e-23 0.529889)
(0.274127 0 -0.12308)
(0.413704 4.45266e-19 0.0294989)
(-5.34936 -8.29123e-19 1.0007)
(2.33573 0 -0.531629)
(-1.70635 -3.45916e-22 0.362986)
(0.84494 0 -0.181099)
(-0.638377 -3.95068e-23 0.143844)
(-0.26077 0 0.00720634)
(1.50462 -7.49238e-19 -0.262937)
(-1.9452 0 0.40062)
(0.269471 6.57495e-19 -0.102194)
(0.990312 0 -0.203612)
(32.485 0 2.09839)
(33.2426 0 2.22406)
(33.589 0 1.74913)
(33.2246 0 0.955413)
(32.2024 1.16023e-20 0.114009)
(30.7295 -8.99482e-22 -0.634709)
(29.0114 0 -1.23538)
(27.2067 2.06045e-20 -1.67887)
(25.4249 0 -1.98237)
(23.7321 -3.52383e-20 -2.17412)
(22.1604 0 -2.28268)
(20.7201 1.52701e-20 -2.33204)
(19.4086 0 -2.34049)
(18.2171 2.59227e-20 -2.32127)
(17.1344 -1.18093e-20 -2.28366)
(16.1491 2.1824e-20 -2.23412)
(15.2502 -1.99819e-20 -2.17708)
(14.4278 -1.83441e-20 -2.11559)
(13.6732 0 -2.05177)
(12.9786 -1.54604e-20 -1.98706)
(12.3375 -1.41271e-20 -1.92247)
(11.7438 -2.57436e-20 -1.85866)
(11.1927 -1.17416e-20 -1.7961)
(10.6797 0 -1.73508)
(10.2011 0 -1.67579)
(9.75331 0 -1.61833)
(9.33357 -1.58376e-20 -1.56276)
(8.93924 -1.42586e-20 -1.50909)
(8.56804 0 -1.4573)
(8.21795 0 -1.40735)
(7.88718 1.01761e-20 -1.35919)
(7.57411 0 -1.31278)
(7.27732 1.32376e-24 -1.26803)
(6.99551 -1.38715e-20 -1.2249)
(6.72754 1.2024e-20 -1.1833)
(6.47236 0 -1.14317)
(6.22902 0 -1.10444)
(5.99665 7.26933e-21 -1.06705)
(5.77449 0 -1.03094)
(5.56182 0 -0.996031)
(5.35798 -3.54312e-21 -0.962278)
(5.16238 4.9876e-21 -0.929618)
(4.97447 0 -0.897999)
(4.79374 1.2935e-21 -0.867365)
(4.61973 0 -0.837669)
(4.452 1.80218e-21 -0.808859)
(4.29015 3.15014e-21 -0.780893)
(4.1338 0 -0.753722)
(3.98262 5.47347e-21 -0.727309)
(3.83627 -6.49717e-21 -0.701608)
(3.69445 -2.95943e-20 -0.676586)
(3.55687 1.64456e-20 -0.6522)
(3.42328 -1.78813e-20 -0.628422)
(3.2934 2.53373e-23 -0.605208)
(3.16704 0 -0.582538)
(3.04391 2.13796e-20 -0.560365)
(2.92387 2.22662e-20 -0.538679)
(2.80664 -2.30121e-20 -0.517427)
(2.69213 2.36683e-20 -0.496611)
(2.58005 4.8476e-20 -0.476168)
(2.47036 4.93858e-20 -0.456117)
(2.36274 -5.0083e-20 -0.436382)
(2.25724 5.06786e-20 -0.417001)
(2.15349 0 -0.397881)
(2.05162 0 -0.379086)
(1.95119 5.14565e-20 -0.360499)
(1.85245 0 -0.342215)
(1.75489 0 -0.324091)
(1.65889 -1.02339e-19 -0.306258)
(1.56383 0 -0.288538)
(1.47025 -1.00908e-19 -0.271112)
(1.3774 -1.9982e-19 -0.25376)
(1.28604 0 -0.236718)
(1.19529 -9.75216e-20 -0.21972)
(1.10609 0 -0.203063)
(1.01747 0 -0.186438)
(0.930511 -1.8588e-19 -0.170198)
(0.844267 1.82416e-19 -0.154)
(0.759824 3.85247e-23 -0.138243)
(0.676475 0 -0.122578)
(0.594949 0 -0.107394)
(0.515399 0 -0.0924363)
(0.437143 -1.62526e-19 -0.0779071)
(0.362917 1.58128e-19 -0.0639403)
(0.287814 0 -0.0500561)
(0.221428 5.96549e-19 -0.0375723)
(0.148796 2.89022e-19 -0.0241335)
(0.0922696 -5.59442e-19 -0.0137819)
(0.0273993 -2.70204e-19 -0.00103463)
(-0.0380367 -5.21159e-19 0.00897303)
(-0.0346595 0 0.0124895)
(-0.230773 0 0.0433643)
(0.00640746 2.36186e-19 0.00265124)
(-0.417512 4.33864e-19 0.0846762)
(-0.0608239 -4.39416e-19 0.0039852)
(-0.318626 0 0.0810021)
(-0.56995 0 0.0835756)
(0.362398 3.89709e-19 -0.0350606)
(-1.72039 3.15491e-19 0.308179)
(1.25115 0 -0.248833)
(-1.75043 -2.51194e-19 0.383273)
(0.17934 3.64474e-19 -0.0979647)
(-0.0690536 0 0.100214)
(-2.58419 0 0.443254)
(1.66127 0 -0.291112)
(-4.06798 0 0.774085)
(2.55056 0 -0.524613)
(-3.26361 -2.93471e-19 0.700931)
(0.657483 0 -0.241978)
(0.326599 0 0.125109)
(-6.4899 0 1.19298)
(2.94314 1.09822e-18 -0.698519)
(-2.35055 6.96072e-19 0.50847)
(1.2257 0 -0.270779)
(-0.819298 -6.50888e-19 0.193508)
(-0.157347 0 -0.0407551)
(1.79718 -7.00924e-19 -0.296755)
(-2.46154 0 0.514487)
(0.492643 -6.14455e-19 -0.181997)
(1.29549 0 -0.269743)
(32.5576 -4.97102e-21 1.4843)
(33.1409 -6.17308e-21 1.62431)
(33.6674 7.33219e-21 1.43362)
(33.8927 8.26438e-21 0.973004)
(33.7002 0 0.38145)
(33.1018 -9.90836e-21 -0.234086)
(32.1709 0 -0.807813)
(30.9984 1.74138e-20 -1.30273)
(29.673 1.66522e-20 -1.70344)
(28.2709 3.21221e-20 -2.01037)
(26.8516 -1.47819e-20 -2.23324)
(25.4571 1.37957e-20 -2.38554)
(24.1145 0 -2.48118)
(22.8394 0 -2.53278)
(21.6391 1.11335e-20 -2.55096)
(20.5152 -1.14403e-22 -2.54426)
(19.4663 1.75843e-22 -2.5193)
(18.4888 1.35744e-22 -2.48116)
(17.5781 0 -2.43366)
(16.7294 0 -2.3797)
(15.9378 0 -2.32141)
(15.1987 2.41895e-20 -2.26041)
(14.5075 1.10064e-20 -2.1979)
(13.8602 0 -2.13476)
(13.2531 0 -2.07165)
(12.6828 1.64803e-20 -2.00906)
(12.1461 0 -1.94733)
(11.6404 0 -1.88672)
(11.1631 0 -1.82741)
(10.7119 0 -1.76951)
(10.2848 -6.4271e-24 -1.7131)
(9.87985 0 -1.65822)
(9.49545 -1.64679e-24 -1.60489)
(9.13006 1.3076e-20 -1.55311)
(8.78226 2.54354e-24 -1.50286)
(8.45081 0 -1.4541)
(8.13453 0 -1.40682)
(7.83237 0 -1.36096)
(7.54337 0 -1.31648)
(7.26664 0 -1.27334)
(7.00135 0 -1.23148)
(6.74676 0 -1.19086)
(6.50217 -2.92041e-21 -1.15143)
(6.26694 -1.25486e-21 -1.11314)
(6.04047 0 -1.07594)
(5.82221 1.66342e-21 -1.03977)
(5.61164 0 -1.00461)
(5.40829 0 -0.970384)
(5.21171 -1.02954e-20 -0.937068)
(5.02147 0 -0.904608)
(4.8372 1.39213e-20 -0.872969)
(4.65849 0 -0.8421)
(4.48504 3.36485e-20 -0.811973)
(4.31648 2.45662e-23 -0.782534)
(4.15255 0 -0.753764)
(3.99289 0 -0.725605)
(3.83731 0 -0.698047)
(3.68545 4.32982e-20 -0.671026)
(3.53718 -4.45304e-20 -0.644546)
(3.39213 -4.5548e-20 -0.618531)
(3.25024 -4.64036e-20 -0.593003)
(3.1111 9.42079e-20 -0.56787)
(2.97476 4.76178e-20 -0.543179)
(2.84074 0 -0.518815)
(2.7092 0 -0.494857)
(2.57958 -2.42692e-23 -0.471161)
(2.4522 0 -0.447845)
(2.32637 0 -0.424727)
(2.20259 -9.61311e-20 -0.401976)
(2.08005 0 -0.379364)
(1.95944 0 -0.357123)
(1.83981 1.87719e-19 -0.334968)
(1.72207 -9.27818e-20 -0.313204)
(1.60515 0 -0.291489)
(1.49017 0 -0.270203)
(1.37595 0 -0.248945)
(1.2638 1.7457e-19 -0.228176)
(1.15256 0 -0.207441)
(1.04354 3.35599e-19 -0.187267)
(0.935883 -1.64129e-19 -0.167185)
(0.830464 0 -0.147719)
(0.727488 0 -0.128499)
(0.626116 1.52512e-19 -0.109853)
(0.529677 -2.49325e-23 -0.0918366)
(0.432259 1.44151e-19 -0.074015)
(0.345447 -2.79759e-19 -0.057805)
(0.251197 2.70988e-19 -0.0405587)
(0.176702 2.62286e-19 -0.0270652)
(0.0915088 2.53342e-19 -0.0103505)
(0.00843907 2.99076e-23 0.00158786)
(0.00137433 0 0.00942729)
(-0.230875 -2.24448e-19 0.0431162)
(0.0359125 0 3.23442e-05)
(-0.468572 0 0.0966572)
(-0.0433577 4.1165e-19 -0.00216324)
(-0.377163 0 0.102257)
(-0.632827 0 0.0832903)
(0.391359 0 -0.0216918)
(-2.00032 -2.95399e-19 0.348751)
(1.45748 0 -0.290493)
(-2.11831 -2.35061e-19 0.474345)
(0.340675 0 -0.159741)
(-0.183473 0 0.168257)
(-2.92338 0 0.481328)
(1.82792 0 -0.303167)
(-4.85454 0 0.91568)
(3.012 -6.09786e-19 -0.629468)
(-4.01202 -2.74351e-19 0.87476)
(1.14536 5.50255e-19 -0.392273)
(0.190853 0 0.254446)
(-7.39414 0 1.33158)
(3.44853 -2.05347e-18 -0.854488)
(-3.02845 0 0.66366)
(1.65698 7.96632e-19 -0.377367)
(-1.0055 0 0.248723)
(0.014134 7.23573e-19 -0.108453)
(2.03548 6.55001e-19 -0.311919)
(-2.91776 0 0.618281)
(0.748915 -5.7358e-19 -0.279442)
(1.5963 0 -0.336012)
(32.6126 4.68135e-21 1.0323)
(33.0236 1.13815e-20 1.11974)
(33.4697 -6.90653e-21 1.0371)
(33.8347 -7.80224e-22 0.774106)
(34.0079 7.4853e-21 0.384187)
(33.9334 0 -0.0707373)
(33.6033 0 -0.541566)
(33.0378 -1.63976e-20 -0.99257)
(32.2723 -3.04592e-20 -1.40013)
(31.3493 -7.07538e-22 -1.75121)
(30.3122 1.39179e-20 -2.04132)
(29.2016 -1.29893e-20 -2.27181)
(28.0525 1.17478e-20 -2.4475)
(26.8931 0 -2.57498)
(25.7448 0 -2.66144)
(24.6232 -9.54109e-21 -2.71387)
(23.5387 3.49151e-20 -2.73866)
(22.4977 3.21353e-20 -2.74136)
(21.5038 0 -2.72669)
(20.5582 0 -2.69853)
(19.6607 0 -2.66003)
(18.8103 -6.7204e-23 -2.61375)
(18.0051 -2.06751e-20 -2.56169)
(17.243 9.39065e-21 -2.50548)
(16.5217 1.70656e-20 -2.44637)
(15.8388 -3.0986e-20 -2.38538)
(15.1919 1.39817e-20 -2.32327)
(14.5788 1.25995e-20 -2.26067)
(13.9971 1.1315e-20 -2.19806)
(13.445 0 -2.1358)
(12.9203 -9.02643e-21 -2.07418)
(12.4212 7.98719e-21 -2.01341)
(11.9461 -7.04002e-21 -1.95366)
(11.4934 -1.23042e-20 -1.89503)
(11.0616 -2.13423e-20 -1.83763)
(10.6493 0 -1.78148)
(10.2553 0 -1.72664)
(9.87833 -6.46846e-21 -1.67312)
(9.51737 0 -1.62092)
(9.17139 4.17828e-21 -1.57002)
(8.83945 3.16669e-21 -1.52043)
(8.52068 0 -1.4721)
(8.21426 5.51213e-21 -1.42501)
(7.91943 1.18091e-21 -1.37913)
(7.6355 0 -1.33442)
(7.36178 -1.56521e-21 -1.29084)
(7.09768 -2.74556e-21 -1.24836)
(6.8426 0 -1.20693)
(6.59601 9.65679e-21 -1.16652)
(6.35738 -5.71474e-21 -1.12707)
(6.12625 -1.30416e-20 -1.08856)
(5.90215 0 -1.05093)
(5.68468 -2.48581e-23 -1.01416)
(5.47338 3.39065e-20 -0.978179)
(5.26795 0 -0.94298)
(5.06793 0 -0.908494)
(4.87308 -1.96477e-20 -0.874717)
(4.68296 -2.03448e-20 -0.841569)
(4.4974 4.18274e-20 -0.809064)
(4.31593 4.28162e-20 -0.777107)
(4.13849 4.36167e-20 -0.745732)
(3.96456 -4.42564e-20 -0.714825)
(3.79418 -8.94708e-20 -0.684449)
(3.62677 0 -0.65446)
(3.46252 0 -0.624962)
(3.30073 -9.08574e-20 -0.595772)
(3.14177 0 -0.567044)
(2.98481 0 -0.538547)
(2.83042 9.02878e-20 -0.510497)
(2.67764 0 -0.482605)
(2.52725 -8.89595e-20 -0.455165)
(2.37814 -3.21516e-23 -0.427818)
(2.23134 8.71045e-20 -0.400948)
(2.08559 0 -0.374122)
(1.9422 0 -0.347821)
(1.79976 0 -0.321534)
(1.65981 1.63727e-19 -0.295844)
(1.52096 0 -0.270172)
(1.38475 -1.57405e-19 -0.245189)
(1.25019 3.07887e-19 -0.220283)
(1.11827 0 -0.196144)
(0.989255 0 -0.172249)
(0.862159 0 -0.149096)
(0.740882 -2.46262e-23 -0.12661)
(0.618557 -1.35138e-19 -0.104473)
(0.508691 -2.62156e-19 -0.0841094)
(0.390265 -2.53982e-19 -0.0626883)
(0.295244 2.4573e-19 -0.0456576)
(0.187027 0 -0.0245141)
(0.0845203 2.28827e-19 -0.0106175)
(0.0625677 0 0.00287163)
(-0.203718 2.10233e-19 0.0381197)
(0.083094 0 -0.00469948)
(-0.495774 0 0.104575)
(-0.00991699 0 -0.0113583)
(-0.422609 -3.49766e-19 0.123169)
(-0.668742 -3.43737e-19 0.075664)
(0.409938 0 -0.00159761)
(-2.23211 2.76091e-19 0.376567)
(1.63127 -3.50033e-19 -0.324876)
(-2.46055 2.19941e-19 0.562668)
(0.526251 -3.18656e-19 -0.232354)
(-0.316735 0 0.250665)
(-3.16582 0 0.495082)
(1.92245 0 -0.293474)
(-5.56008 0 1.03674)
(3.39692 5.70205e-19 -0.721881)
(-4.74825 1.23458e-22 1.04751)
(1.70424 -1.02836e-18 -0.568965)
(0.0337672 0 0.413476)
(-8.03384 0 1.40871)
(3.81835 9.59642e-19 -0.990293)
(-3.71238 0 0.821664)
(2.1119 -7.44457e-19 -0.496975)
(-1.20148 0 0.310595)
(0.244637 -1.35183e-18 -0.19506)
(2.22909 0 -0.308453)
(-3.28824 0 0.706453)
(1.00842 5.35816e-19 -0.389719)
(1.88444 0 -0.400627)
(32.6375 0 0.679196)
(32.9389 -5.23741e-21 0.722841)
(33.2758 0 0.673657)
(33.6062 -6.58986e-21 0.510903)
(33.867 -1.34369e-20 0.24942)
(34.0073 0 -0.0790819)
(33.9987 6.70474e-21 -0.443199)
(33.8298 0 -0.816841)
(33.5012 8.99075e-22 -1.17981)
(33.0224 -2.58264e-20 -1.51764)
(32.4095 0 -1.82101)
(31.6827 0 -2.08502)
(30.8643 -1.10494e-20 -2.30807)
(29.9767 0 -2.49091)
(29.0408 0 -2.63582)
(28.0755 0 -2.74607)
(27.097 -1.63104e-20 -2.82544)
(26.1188 -1.50274e-20 -2.87789)
(25.1512 -1.36365e-20 -2.90728)
(24.2023 0 -2.91725)
(23.2779 0 -2.91108)
(22.3821 -1.06264e-20 -2.89168)
(21.5173 9.69804e-21 -2.86155)
(20.6849 -8.83217e-21 -2.82284)
(19.8857 -1.60506e-20 -2.77735)
(19.1194 2.90269e-20 -2.72659)
(18.3855 -5.41385e-23 -2.6718)
(17.6833 -1.18498e-20 -2.61402)
(17.0116 -1.06416e-20 -2.5541)
(16.3692 0 -2.49274)
(15.755 0 -2.43049)
(15.1675 -7.51141e-21 -2.36782)
(14.6054 0 -2.30509)
(14.0675 1.15707e-20 -2.24261)
(13.5524 1.00335e-20 -2.1806)
(13.059 -8.60619e-21 -2.11926)
(12.586 0 -2.05874)
(12.1324 6.08214e-21 -1.99913)
(11.697 4.96374e-21 -1.94052)
(11.2788 3.66932e-24 -1.88299)
(10.877 -5.95924e-21 -1.82656)
(10.4905 0 -1.77126)
(10.1184 -2.59814e-21 -1.7171)
(9.76006 0 -1.66409)
(9.41459 0 -1.61223)
(9.08129 0 -1.56148)
(8.75947 1.37494e-23 -1.51185)
(8.44846 0 -1.4633)
(8.14767 -4.53101e-21 -1.41581)
(7.85649 1.07279e-20 -1.36933)
(7.57438 1.22554e-20 -1.32386)
(7.30079 0 -1.27934)
(7.03527 -1.48334e-20 -1.23574)
(6.77727 -3.18114e-20 -1.19302)
(6.52643 0 -1.15116)
(6.28221 0 -1.1101)
(6.04434 1.84561e-20 -1.06982)
(5.81226 1.90726e-20 -1.03025)
(5.5858 -1.96339e-20 -0.991413)
(5.36438 -4.01445e-20 -0.953191)
(5.14791 0 -0.915635)
(4.93578 0 -0.878609)
(4.72804 2.84397e-23 -0.842195)
(4.52397 -4.22933e-20 -0.806221)
(4.32379 0 -0.770818)
(4.12668 4.26321e-20 -0.735762)
(3.93304 0 -0.701246)
(3.74189 0 -0.666987)
(3.5539 0 -0.633254)
(3.36789 0 -0.59969)
(3.1848 3.41221e-23 -0.56666)
(3.00328 -3.18545e-23 -0.533721)
(2.82456 -8.1653e-20 -0.501348)
(2.64711 0 -0.469002)
(2.47246 -7.93979e-20 -0.437282)
(2.29895 0 -0.405547)
(2.12836 -1.53526e-19 -0.374528)
(1.95906 1.50541e-19 -0.343491)
(1.79284 -1.47495e-19 -0.313283)
(1.62849 -1.44291e-19 -0.283116)
(1.46722 0 -0.253883)
(1.30927 1.37466e-19 -0.224865)
(1.15357 0 -0.196783)
(1.00454 -1.30297e-19 -0.169369)
(0.854417 -1.26568e-19 -0.1425)
(0.718562 2.45588e-19 -0.117514)
(0.573083 0 -0.0915117)
(0.454657 -4.6027e-19 -0.0705006)
(0.320387 0 -0.0444296)
(0.19628 2.14218e-19 -0.0284101)
(0.154785 0 -0.00799609)
(-0.144043 1.9675e-19 0.0270357)
(0.152954 0 -0.0120442)
(-0.493949 3.56084e-19 0.107543)
(0.0430069 -3.60664e-19 -0.0239752)
(-0.44983 3.27311e-19 0.142823)
(-0.675208 3.21637e-19 0.0604303)
(0.424066 0 0.0243118)
(-2.41072 -5.16378e-19 0.390797)
(1.7733 6.54998e-19 -0.351652)
(-2.76814 0 0.645822)
(0.72366 2.98021e-19 -0.313386)
(-0.459505 0 0.345666)
(-3.31198 0 0.485055)
(1.95432 -5.25263e-19 -0.262972)
(-6.1645 0 1.13422)
(3.69104 0 -0.798282)
(-5.45926 2.3966e-19 1.21465)
(2.2894 9.60112e-19 -0.764572)
(-0.120318 3.4172e-19 0.597438)
(-8.39201 0 1.4233)
(4.03816 0 -1.09974)
(-4.36711 0 0.973296)
(2.54916 0 -0.622543)
(-1.4122 5.30738e-19 0.379958)
(0.522552 6.31274e-19 -0.298686)
(2.38999 0 -0.288253)
(-3.54649 0 0.773733)
(1.23699 0 -0.506253)
(2.15191 0 -0.462137)
(32.6369 4.1929e-21 0.390946)
(32.8689 0 0.407232)
(33.1246 4.91e-21 0.366905)
(33.3893 0 0.253939)
(33.6322 6.01006e-21 0.0688806)
(33.8218 0 -0.173578)
(33.9352 -6.3016e-21 -0.454315)
(33.9573 1.15578e-20 -0.755399)
(33.8789 2.35977e-20 -1.06168)
(33.6955 7.27097e-22 -1.36116)
(33.4065 0 -1.64484)
(33.0153 0 -1.9065)
(32.5286 0 -2.14229)
(31.9556 0 -2.35011)
(31.3073 0 -2.52924)
(30.5956 0 -2.67993)
(29.8331 1.4698e-20 -2.8032)
(29.0319 -1.36207e-20 -2.90065)
(28.2037 1.28129e-20 -2.97425)
(27.3589 0 -3.02621)
(26.5066 0 -3.05886)
(25.6547 9.78469e-21 -3.07454)
(24.8097 8.95338e-21 -3.07548)
(23.9766 8.17246e-21 -3.06378)
(23.1595 0 -3.04138)
(22.3615 -1.36038e-20 -3.01001)
(21.5847 -2.45345e-20 -2.9712)
(20.8305 1.10354e-20 -2.92631)
(20.0999 0 -2.8765)
(19.3933 0 -2.82277)
(18.7108 0 -2.76599)
(18.0524 7.02238e-21 -2.70688)
(17.4175 0 -2.64605)
(16.8056 0 -2.58404)
(16.2161 9.40004e-21 -2.52127)
(15.6484 8.08472e-21 -2.4581)
(15.1015 0 -2.39483)
(14.5746 5.70936e-21 -2.33171)
(14.0671 -9.32355e-21 -2.26895)
(13.5779 -3.69345e-21 -2.20671)
(13.1064 2.80089e-21 -2.14511)
(12.6516 0 -2.08427)
(12.2129 0 -2.02426)
(11.7894 0 -1.96514)
(11.3803 -1.86936e-22 -1.90697)
(10.985 0 -1.84976)
(10.6028 2.4104e-21 -1.79354)
(10.2329 3.35838e-21 -1.73831)
(9.87483 0 -1.68409)
(9.52784 -5.03016e-21 -1.63084)
(9.1914 0 -1.57858)
(8.86489 0 -1.52726)
(8.54783 -1.38803e-20 -1.47688)
(8.23961 2.17385e-23 -1.4274)
(7.93983 1.58001e-20 -1.37881)
(7.64789 0 -1.33105)
(7.36345 0 -1.28413)
(7.08592 -1.78995e-20 -1.23796)
(6.81507 0 -1.19257)
(6.55024 3.76704e-20 -1.14785)
(6.29133 0 -1.10385)
(6.03762 0 -1.06043)
(5.78917 7.87059e-20 -1.01768)
(5.54513 7.93251e-20 -0.975411)
(5.30577 3.98491e-20 -0.933778)
(5.0701 0 -0.892515)
(4.8386 0 -0.851864)
(4.6101 3.98461e-20 -0.811481)
(4.38538 7.93446e-20 -0.771699)
(4.16304 0 -0.732083)
(3.94418 7.82261e-20 -0.693081)
(3.72719 -7.74395e-20 -0.654151)
(3.5135 7.65443e-20 -0.615879)
(3.30131 -7.54969e-20 -0.577597)
(3.09238 7.44173e-20 -0.540048)
(2.88476 0 -0.502435)
(2.6805 0 -0.465665)
(2.47767 -1.4106e-19 -0.428815)