/*--------------------------------*- C++ -*----------------------------------*\
| =========                 |                                                 |
| \\      /  F ield         | OpenFOAM: The Open Source CFD Toolbox           |
|  \\    /   O peration     | Version:  2412                                  |
|   \\  /    A nd           | Website:  www.openfoam.com                      |
|    \\/     M anipulation  |                                                 |
\*---------------------------------------------------------------------------*/
FoamFile
{
    version     2.0;
    format      ascii;
    arch        "LSB;label=32;scalar=64";
    class       volVectorField;
    location    "0.37";
    object      U;
}
// * * * * * * * * * * * * * * * * * * * * * * * * * * * * * * * * * * * * * //

dimensions      [0 1 -1 0 0 0 0];

internalField   nonuniform List<vector> 
12600
(
(18.8502 1.23313e-21 2.1053)
(11.6829 1.6131e-20 0.455514)
(7.38928 1.89739e-20 -0.478676)
(5.11313 0 -0.712114)
(3.99267 1.713e-20 -0.685285)
(3.34804 1.59395e-20 -0.61017)
(2.90431 0 -0.54209)
(2.57132 0 -0.486255)
(2.31038 -4.77808e-20 -0.440493)
(2.09921 0 -0.402519)
(1.92401 2.00033e-20 -0.370463)
(1.7758 1.82982e-20 -0.342984)
(1.64843 -1.67463e-20 -0.319125)
(1.53755 0 -0.298182)
(1.43994 -1.40062e-20 -0.279628)
(1.35321 0 -0.263057)
(1.27551 4.69568e-20 -0.248151)
(1.20542 0 -0.234658)
(1.14179 -1.96031e-20 -0.222375)
(1.0837 -1.79037e-20 -0.211138)
(1.03042 1.63197e-20 -0.200811)
(0.981331 5.18108e-24 -0.191281)
(0.935921 0 -0.182455)
(0.893764 -2.44956e-20 -0.174252)
(0.854498 0 -0.166605)
(0.817814 0 -0.159456)
(0.783449 -1.80424e-20 -0.152755)
(0.751174 0 -0.146458)
(0.72079 4.32368e-24 -0.140528)
(0.692123 1.29236e-20 -0.134931)
(0.665022 1.14632e-20 -0.129639)
(0.639352 1.01116e-20 -0.124626)
(0.614993 -8.86122e-21 -0.119868)
(0.59184 -1.54098e-20 -0.115345)
(0.569799 -1.32723e-20 -0.11104)
(0.548783 1.12868e-20 -0.106935)
(0.528717 0 -0.103015)
(0.509531 -7.79369e-21 -0.0992684)
(0.491162 0 -0.0956813)
(0.473555 4.81727e-21 -0.0922432)
(0.456655 0 -0.088944)
(0.440418 1.77523e-23 -0.0857745)
(0.424798 0 -0.0827262)
(0.409758 1.61255e-23 -0.0797915)
(0.395258 -1.51031e-21 -0.076963)
(0.381267 3.18779e-21 -0.0742343)
(0.367753 -4.74399e-21 -0.0715991)
(0.354687 0 -0.0690521)
(0.342042 0 -0.0665876)
(0.329794 -8.56548e-21 -0.0642012)
(0.317918 -1.9202e-20 -0.0618878)
(0.306395 -2.10615e-20 -0.0596438)
(0.295202 1.95192e-23 -0.0574645)
(0.284322 -2.41842e-20 -0.0553469)
(0.273734 0 -0.0532866)
(0.263425 2.66587e-20 -0.0512813)
(0.253377 2.76589e-20 -0.0493271)
(0.243578 2.85072e-20 -0.0474221)
(0.234012 0 -0.0455626)
(0.224669 0 -0.0437471)
(0.215534 0 -0.0419726)
(0.2066 -6.15574e-20 -0.0402374)
(0.197853 0 -0.0385391)
(0.189287 0 -0.0368763)
(0.180891 1.25745e-19 -0.0352471)
(0.172661 0 -0.0336501)
(0.164587 0 -0.0320841)
(0.156667 0 -0.0305481)
(0.148895 -1.25109e-19 -0.0290411)
(0.141268 1.24352e-19 -0.0275624)
(0.133781 1.2339e-19 -0.0261111)
(0.126431 2.35956e-23 -0.0246865)
(0.119215 -1.20914e-19 -0.0232881)
(0.112124 0 -0.0219139)
(0.105169 1.17797e-19 -0.0205665)
(0.0983166 0 -0.0192391)
(0.0916196 0 -0.0179418)
(0.0850003 0 -0.0166599)
(0.0785873 2.93878e-23 -0.0154177)
(0.0722472 2.1577e-19 -0.01419)
(0.0661935 2.1127e-19 -0.0130195)
(0.0602563 -2.06578e-19 -0.0118695)
(0.0545682 -2.0181e-19 -0.0107679)
(0.0488326 0 -0.00965406)
(0.0430413 0 -0.00853408)
(0.037495 3.73791e-19 -0.00746476)
(0.0323461 -7.27374e-19 -0.00647326)
(0.0277282 7.07084e-19 -0.00557863)
(0.0229093 3.43309e-19 -0.00464084)
(0.0181011 0 -0.00370669)
(0.012652 -6.45403e-19 -0.00265586)
(0.00814075 3.12537e-19 -0.00178727)
(0.00300163 -3.0261e-19 -0.00080828)
(0.000589944 5.85728e-19 -0.000328894)
(-0.00613235 0 0.000964495)
(-0.0120196 0 0.00208387)
(-0.0242668 0 0.00442023)
(-0.0292036 0 0.00534814)
(-0.0377581 0 0.00697629)
(-0.0390869 0 0.00721681)
(-0.0548201 -4.67885e-19 0.0102143)
(-0.0515319 -9.15401e-19 0.00944905)
(-0.048615 -8.98668e-19 0.00879215)
(-0.0152447 0 0.00231975)
(0.00152991 0 -0.000847218)
(0.0365545 0 -0.00745241)
(0.0374571 -7.98802e-19 -0.00755129)
(0.064585 -1.53286e-18 -0.0127359)
(0.059125 7.34991e-19 -0.01172)
(0.0960816 0 -0.0188508)
(0.0934114 -1.34989e-18 -0.0183611)
(0.145731 0 -0.0284531)
(0.149034 -1.23404e-18 -0.0290941)
(0.225698 1.17714e-18 -0.0437557)
(0.222959 -1.10475e-18 -0.0429784)
(0.302142 -1.03428e-18 -0.0579496)
(0.265963 9.47439e-19 -0.0508561)
(0.327798 5.1806e-23 -0.0627724)
(0.263797 7.95753e-19 -0.0503968)
(0.374152 0 -0.0718497)
(29.2932 -1.24483e-21 4.04139)
(25.2308 0 1.8711)
(20.3461 -1.92034e-20 -0.20973)
(16.1563 0 -1.21509)
(13.1781 -1.73575e-20 -1.51321)
(11.1224 -3.04431e-20 -1.52458)
(9.6411 -1.40801e-20 -1.4466)
(8.52261 0 -1.34839)
(7.64486 3.57085e-22 -1.25244)
(6.93455 -2.18355e-20 -1.16487)
(6.34572 2.00303e-20 -1.08639)
(5.84812 1.83716e-20 -1.01623)
(5.42101 -1.68476e-20 -0.95338)
(5.04963 1.54462e-20 -0.896859)
(4.72314 2.83693e-20 -0.845796)
(4.43342 0 -0.799452)
(4.17425 -6.41406e-23 -0.757203)
(3.94074 2.17214e-20 -0.718523)
(3.72906 1.98883e-20 -0.68297)
(3.53608 0 -0.65017)
(3.3593 0 -0.619806)
(3.19662 1.50616e-20 -0.591607)
(3.04633 0 -0.565341)
(2.90698 1.24176e-20 -0.540809)
(2.77735 -2.24766e-20 -0.517837)
(2.65638 0 -0.496275)
(2.54319 1.8288e-20 -0.475991)
(2.43701 0 -0.45687)
(2.33716 -1.46889e-20 -0.438811)
(2.24305 -2.61827e-20 -0.421722)
(2.15418 -2.32198e-20 -0.405525)
(2.0701 -1.02348e-20 -0.390146)
(1.99039 8.96669e-21 -0.375524)
(1.91471 3.11957e-20 -0.361599)
(1.84273 2.68629e-20 -0.34832)
(1.77417 0 -0.335641)
(1.70877 0 -0.323519)
(1.6463 -1.76145e-23 -0.311915)
(1.58656 0 -0.300794)
(1.52934 -4.86323e-21 -0.290124)
(1.47447 0 -0.279875)
(1.42181 -4.63859e-21 -0.270021)
(1.37119 0 -0.260536)
(1.3225 -3.6185e-22 -0.251398)
(1.2756 0 -0.242585)
(1.23038 -3.2099e-21 -0.234079)
(1.18675 0 -0.225859)
(1.1446 0 -0.217911)
(1.10384 7.42309e-21 -0.210218)
(1.0644 0 -0.202765)
(1.02619 0 -0.195538)
(0.989146 0 -0.188526)
(0.95319 2.27761e-20 -0.181713)
(0.918271 4.84607e-20 -0.175093)
(0.884318 0 -0.16865)
(0.851288 0 -0.162379)
(0.819117 -2.76351e-20 -0.156267)
(0.787772 -2.85058e-20 -0.150308)
(0.757192 0 -0.144491)
(0.727351 0 -0.138812)
(0.698196 0 -0.13326)
(0.669703 0 -0.127832)
(0.641827 -6.18847e-20 -0.122519)
(0.614547 6.22745e-20 -0.117317)
(0.587828 -1.2503e-19 -0.112221)
(0.56165 0 -0.107226)
(0.53599 0 -0.102328)
(0.510829 0 -0.0975241)
(0.486152 4.72431e-23 -0.0928112)
(0.461944 -1.23163e-19 -0.0881868)
(0.43819 -1.22098e-19 -0.0836478)
(0.414877 2.41659e-19 -0.0791924)
(0.391997 3.59156e-23 -0.074818)
(0.369516 -1.17813e-19 -0.0705202)
(0.347474 -1.16121e-19 -0.0663042)
(0.325771 0 -0.0621532)
(0.304557 0 -0.0580949)
(0.283616 0 -0.0540884)
(0.263314 2.16106e-19 -0.0502061)
(0.243272 0 -0.0463714)
(0.224104 0 -0.0427112)
(0.205287 2.02181e-19 -0.0391101)
(0.187218 1.97304e-19 -0.0356535)
(0.169011 0 -0.0321555)
(0.150784 0 -0.0286644)
(0.133389 0 -0.0253446)
(0.11719 7.07971e-19 -0.0222618)
(0.102511 -4.87116e-23 -0.019454)
(0.087126 3.33389e-19 -0.016497)
(0.0719924 -3.22979e-19 -0.0135734)
(0.0550357 6.25453e-19 -0.010329)
(0.0411571 3.02515e-19 -0.0076686)
(0.025329 5.85254e-19 -0.00467907)
(0.0173145 0 -0.00311244)
(-0.00383802 0 0.00102509)
(-0.0214847 0 0.00450797)
(-0.057532 0 0.011432)
(-0.0702232 4.91498e-19 0.0137952)
(-0.0954256 0 0.018568)
(-0.0982384 0 0.0192287)
(-0.142803 -4.48551e-19 0.0277568)
(-0.126826 4.38433e-19 0.0242963)
(-0.115458 1.71989e-18 0.0213936)
(-0.0136644 -8.42374e-19 0.00148553)
(0.032954 0 -0.00748546)
(0.136709 0 -0.0270486)
(0.136883 0 -0.0268791)
(0.220672 7.30032e-19 -0.0428453)
(0.204487 -6.99493e-19 -0.0399048)
(0.319051 0 -0.0620298)
(0.310723 2.56491e-18 -0.0606454)
(0.472112 1.22828e-18 -0.0918606)
(0.479631 2.34104e-18 -0.0936234)
(0.709004 0 -0.13774)
(0.689479 0 -0.13367)
(0.922037 -9.78971e-19 -0.177983)
(0.800444 0 -0.154164)
(0.992349 -8.24334e-19 -0.190844)
(0.793789 -7.51715e-19 -0.15327)
(1.15085 0 -0.222677)
(32.0362 0 3.91298)
(31.2193 0 2.83483)
(28.682 -1.29879e-20 1.03396)
(25.3254 0 -0.379593)
(22.0571 0 -1.22851)
(19.2686 1.51378e-20 -1.65611)
(16.9974 1.33339e-20 -1.82567)
(15.1619 0 -1.85763)
(13.666 4.22875e-22 -1.82381)
(12.4292 2.06861e-20 -1.761)
(11.3904 -3.7743e-20 -1.68685)
(10.5052 -1.7407e-20 -1.60976)
(9.74114 1.14803e-22 -1.53375)
(9.07418 -1.46365e-20 -1.46067)
(8.48629 -1.34147e-20 -1.39133)
(7.96366 1.22393e-20 -1.32598)
(7.49556 -2.25011e-20 -1.2646)
(7.0735 -2.0584e-20 -1.20703)
(6.6907 0 -1.15305)
(6.34168 0 -1.10242)
(6.02194 1.56363e-20 -1.05488)
(5.72776 1.42414e-20 -1.0102)
(5.45605 0 -0.968142)
(5.20421 0 -0.928505)
(4.97002 2.12979e-20 -0.891093)
(4.7516 0 -0.855731)
(4.54733 -3.46514e-20 -0.82226)
(4.3558 1.55582e-20 -0.790534)
(4.17581 0 -0.760422)
(4.00628 1.2406e-20 -0.731803)
(3.84628 1.10024e-20 -0.704568)
(3.69498 0 -0.67862)
(3.55166 -8.50771e-21 -0.653867)
(3.41567 -1.47831e-20 -0.630227)
(3.28641 1.24029e-23 -0.607625)
(3.16338 0 -0.585992)
(3.04611 0 -0.565264)
(2.93416 7.47302e-21 -0.545383)
(2.82716 0 -0.526296)
(2.72476 0 -0.507953)
(2.62664 0 -0.490308)
(2.53251 0 -0.473321)
(2.44211 0 -0.45695)
(2.3552 0 -0.441161)
(2.27156 0 -0.425918)
(2.19097 2.99466e-21 -0.411192)
(2.11325 -4.46408e-21 -0.396952)
(2.03823 0 -0.383172)
(1.96574 -7.02294e-21 -0.369825)
(1.89563 0 -0.356888)
(1.82776 0 -0.344336)
(1.762 1.99133e-20 -0.332152)
(1.69822 0 -0.320311)
(1.63631 -2.28968e-20 -0.308799)
(1.57616 2.40977e-20 -0.297593)
(1.51768 0 -0.286683)
(1.46076 2.61212e-20 -0.276046)
(1.40533 0 -0.265676)
(1.3513 0 -0.255551)
(1.2986 0 -0.245665)
(1.24714 5.71753e-20 -0.236)
(1.19688 5.78874e-20 -0.22655)
(1.14774 2.82653e-23 -0.217301)
(1.09968 -1.17583e-19 -0.208245)
(1.05263 2.47884e-23 -0.199373)
(1.00656 0 -0.190678)
(0.961417 0 -0.182152)
(0.917175 -1.17553e-19 -0.17379)
(0.873801 3.79725e-23 -0.165587)
(0.831265 0 -0.157538)
(0.789544 0 -0.149636)
(0.748603 -1.13927e-19 -0.14188)
(0.708435 2.88457e-23 -0.134264)
(0.668978 2.6892e-23 -0.126782)
(0.630295 0 -0.119439)
(0.592227 0 -0.112214)
(0.555014 -2.115e-19 -0.105147)
(0.518315 2.07551e-19 -0.0981774)
(0.482719 0 -0.0914219)
(0.447612 0 -0.0847556)
(0.413991 0 -0.0783856)
(0.380964 0 -0.0721079)
(0.349198 0 -0.0660671)
(0.317231 0 -0.0599485)
(0.285429 0 -0.0538967)
(0.255137 0 -0.048169)
(0.22684 -6.65583e-19 -0.0428407)
(0.201004 -3.23112e-19 -0.0379266)
(0.173887 -3.13342e-19 -0.0327286)
(0.147519 3.03496e-19 -0.0276355)
(0.118213 -5.87536e-19 -0.0220717)
(0.0944365 -2.8415e-19 -0.0175497)
(0.0672223 -2.7479e-19 -0.0124902)
(0.052714 0 -0.00961213)
(0.0160226 0 -0.00231354)
(-0.013323 0 0.00363127)
(-0.0726295 0 0.0148938)
(-0.0909876 -4.61106e-19 0.0180674)
(-0.132656 0 0.0258068)
(-0.135313 0 0.0266819)
(-0.206094 4.20574e-19 0.0399074)
(-0.171029 0 0.0317958)
(-0.149098 -8.05925e-19 0.0252502)
(0.0233435 7.894e-19 -0.00872055)
(0.0960016 0 -0.0225206)
(0.268336 0 -0.0543523)
(0.265148 0 -0.0531245)
(0.409024 6.8354e-19 -0.0803567)
(0.381595 0 -0.0756799)
(0.578522 -6.27734e-19 -0.113754)
(0.563291 -9.68096e-23 -0.111591)
(0.839405 -1.14954e-18 -0.165078)
(0.84688 -2.19048e-18 -0.167503)
(1.22986 0 -0.240656)
(1.18086 9.78841e-19 -0.230325)
(1.56493 9.15708e-19 -0.302393)
(1.34434 8.38238e-19 -0.258563)
(1.67702 0 -0.321589)
(1.33563 7.02879e-19 -0.258447)
(1.96627 0 -0.382707)
(32.5533 0 2.97066)
(33.1197 0 2.78393)
(32.5664 1.22778e-20 1.73654)
(30.9193 0 0.530269)
(28.6573 -1.23094e-20 -0.480088)
(26.2294 2.50351e-20 -1.20737)
(23.8973 0 -1.6736)
(21.7787 -2.18208e-20 -1.93978)
(19.9077 2.09121e-20 -2.07011)
(18.275 1.88928e-20 -2.11491)
(16.8532 1.77449e-20 -2.10825)
(15.6109 -1.61129e-20 -2.07156)
(14.5194 1.49887e-20 -2.01788)
(13.5544 -2.72987e-20 -1.95511)
(12.6956 0 -1.88801)
(11.9266 -2.30881e-20 -1.81947)
(11.234 0 -1.75125)
(10.6069 0 -1.6844)
(10.0362 0 -1.61955)
(9.51449 1.61698e-20 -1.55703)
(9.03559 -3.40993e-23 -1.497)
(8.5943 -2.58985e-23 -1.43953)
(8.18622 1.22284e-20 -1.38459)
(7.80763 0 -1.33212)
(7.45534 0 -1.28203)
(7.12662 0 -1.23423)
(6.8191 3.27583e-20 -1.18858)
(6.53071 -5.76225e-24 -1.145)
(6.25967 0 -1.10335)
(6.0044 0 -1.06354)
(5.76351 0 -1.02546)
(5.53576 0 -0.989008)
(5.32007 1.60929e-20 -0.954091)
(5.11546 0 -0.920621)
(4.92106 -1.20479e-20 -0.888512)
(4.73609 0 -0.857687)
(4.55984 0 -0.828072)
(4.39167 -7.08826e-21 -0.799597)
(4.231 0 -0.772198)
(4.07731 0 -0.745815)
(3.93013 3.20212e-21 -0.72039)
(3.78901 -4.22199e-21 -0.695871)
(3.65355 0 -0.672208)
(3.52338 -3.90015e-22 -0.649354)
(3.39818 0 -0.627265)
(3.27762 -5.63876e-21 -0.605902)
(3.16142 1.89294e-23 -0.585222)
(3.04931 0 -0.565193)
(2.94105 0 -0.545776)
(2.83641 7.6306e-21 -0.526944)
(2.73516 1.71141e-20 -0.50866)
(2.63712 -3.75773e-20 -0.490901)
(2.54209 0 -0.473634)
(2.44991 -2.15662e-20 -0.456839)
(2.36039 -2.27473e-20 -0.440485)
(2.27342 -2.37339e-20 -0.424557)
(2.18881 -2.46103e-20 -0.409024)
(2.10648 0 -0.393876)
(2.02625 0 -0.379084)
(1.94806 -5.30459e-20 -0.364639)
(1.87175 -1.07832e-19 -0.350515)
(1.79726 -5.45976e-20 -0.336704)
(1.72447 3.03781e-23 -0.323184)
(1.65332 5.5423e-20 -0.309948)
(1.5837 5.56087e-20 -0.29698)
(1.51556 0 -0.284269)
(1.44883 0 -0.271807)
(1.38345 1.1078e-19 -0.259584)
(1.31939 2.20321e-19 -0.247592)
(1.25657 0 -0.235825)
(1.19499 1.08373e-19 -0.224273)
(1.13457 1.07233e-19 -0.212933)
(1.0753 1.05971e-19 -0.201795)
(1.0171 2.09044e-19 -0.190854)
(0.960047 0 -0.180115)
(0.903926 0 -0.169551)
(0.849067 1.99026e-19 -0.159216)
(0.79501 -3.90509e-19 -0.149032)
(0.742549 -1.91336e-19 -0.139156)
(0.690858 0 -0.12942)
(0.641278 0 -0.120107)
(0.592557 0 -0.110916)
(0.545626 0 -0.102052)
(0.498484 0 -0.0930702)
(0.451843 0 -0.0842606)
(0.407471 -3.2168e-19 -0.075955)
(0.365878 4.71402e-23 -0.0682133)
(0.327649 3.03382e-19 -0.0609851)
(0.287535 0 -0.0533227)
(0.248964 2.84868e-19 -0.0458776)
(0.206398 2.75738e-19 -0.0378617)
(0.172141 0 -0.0313943)
(0.132715 -2.57787e-19 -0.024186)
(0.110799 -4.98218e-19 -0.0197625)
(0.0575643 0 -0.00905585)
(0.0168551 0 -0.000622386)
(-0.0648892 0 0.0147454)
(-0.0866604 -4.32185e-19 0.0182543)
(-0.144563 0 0.0288488)
(-0.144811 0 0.0296462)
(-0.238664 3.93972e-19 0.0467942)
(-0.177898 -3.84848e-19 0.0322194)
(-0.143864 0 0.0212778)
(0.10086 0 -0.0272443)
(0.195004 0 -0.0450559)
(0.435681 0 -0.0887893)
(0.426252 0 -0.0858774)
(0.633675 -6.03874e-23 -0.124936)
(0.59384 0 -0.118529)
(0.877662 5.87413e-19 -0.173459)
(0.853272 -1.12302e-18 -0.170417)
(1.24913 0 -0.247199)
(1.2502 8.27006e-23 -0.249462)
(1.78665 0 -0.351426)
(1.69426 -5.63825e-25 -0.332266)
(2.22858 0 -0.431318)
(1.89602 -7.83723e-19 -0.365146)
(2.38241 0 -0.456625)
(1.8902 6.57119e-19 -0.367745)
(2.81706 0 -0.552009)
(32.6526 0 2.11896)
(33.4098 0 2.24258)
(33.7576 0 1.76542)
(33.3937 0 0.968139)
(32.3687 1.16192e-20 0.1225)
(30.8898 -9.08803e-22 -0.630449)
(29.1631 0 -1.23496)
(27.3481 2.05958e-20 -1.68163)
(25.5553 0 -1.98755)
(23.8514 -3.51604e-20 -2.18099)
(22.2692 0 -2.29065)
(20.8191 1.52116e-20 -2.34066)
(19.4988 0 -2.34942)
(18.2994 2.57742e-20 -2.33029)
(17.2098 -1.17283e-20 -2.29263)
(16.2184 2.16533e-20 -2.24295)
(15.3141 -1.98032e-20 -2.18572)
(14.487 -1.81597e-20 -2.12402)
(13.7283 0 -2.05997)
(13.0302 -1.52687e-20 -1.99505)
(12.386 -1.39335e-20 -1.93025)
(11.7897 -2.53544e-20 -1.86626)
(11.2364 -1.15469e-20 -1.80354)
(10.7215 0 -1.74239)
(10.2413 0 -1.68299)
(9.79227 0 -1.62545)
(9.37151 -1.54608e-20 -1.56982)
(8.97641 -1.38874e-20 -1.51612)
(8.60466 0 -1.46433)
(8.25423 0 -1.4144)
(7.92331 9.82557e-21 -1.3663)
(7.61028 0 -1.31996)
(7.3137 1.484e-24 -1.27532)
(7.03228 -1.32194e-20 -1.23231)
(6.76486 1.13895e-20 -1.19086)
(6.51038 0 -1.1509)
(6.26789 0 -1.11237)
(6.03654 6.69005e-21 -1.07521)
(5.81553 0 -1.03934)
(5.60416 0 -1.00471)
(5.40178 -3.02172e-21 -0.971261)
(5.20778 3.98389e-21 -0.93893)
(5.02162 0 -0.907666)
(4.8428 3.67972e-22 -0.877418)
(4.67086 0 -0.848134)
(4.50536 2.65033e-21 -0.819771)
(4.3459 3.96014e-21 -0.79228)
(4.19214 0 -0.765621)
(4.0437 6.20871e-21 -0.73975)
(3.9003 -7.19609e-21 -0.714634)
(3.76162 -3.22467e-20 -0.690227)
(3.6274 1.77019e-20 -0.666504)
(3.49736 -1.90687e-20 -0.64342)
(3.37129 2.53215e-23 -0.620954)
(3.24893 0 -0.599065)
(3.1301 2.23702e-20 -0.577737)
(3.01457 2.31939e-20 -0.556929)
(2.9022 -2.38793e-20 -0.53663)
(2.79277 2.44759e-20 -0.5168)
(2.68617 4.99768e-20 -0.497431)
(2.58219 5.07745e-20 -0.478488)
(2.48075 -5.13652e-20 -0.459962)
(2.38166 5.18563e-20 -0.441824)
(2.28486 0 -0.424064)
(2.19018 0 -0.406661)
(2.09757 5.23526e-20 -0.389603)
(2.00691 0 -0.372877)
(1.91813 0 -0.356471)
(1.83116 -1.03653e-19 -0.340374)
(1.74591 0 -0.324576)
(1.66236 -1.01962e-19 -0.309066)
(1.5804 -2.01719e-19 -0.293838)
(1.50003 0 -0.27888)
(1.42112 -9.82835e-20 -0.264185)
(1.34378 0 -0.249759)
(1.26774 0 -0.235572)
(1.1934 -1.87e-19 -0.221688)
(1.12021 1.83497e-19 -0.208019)
(1.04914 4.01074e-23 -0.194755)
(0.979168 0 -0.181692)
(0.911951 0 -0.16918)
(0.845884 0 -0.156817)
(0.782156 -1.63803e-19 -0.144865)
(0.718288 1.59562e-19 -0.132765)
(0.655401 0 -0.120988)
(0.595613 6.03879e-19 -0.109918)
(0.539356 2.9334e-19 -0.0995706)
(0.487353 -5.6935e-19 -0.0897974)
(0.432878 -2.7596e-19 -0.0794377)
(0.381062 -5.34439e-19 -0.0694579)
(0.324236 0 -0.0588636)
(0.278843 0 -0.0503712)
(0.226246 2.41717e-19 -0.040918)
(0.196026 4.67087e-19 -0.0347107)
(0.125387 -4.50317e-19 -0.0203474)
(0.0739506 0 -0.00945382)
(-0.0292024 0 0.00963101)
(-0.0520561 4.04931e-19 0.0128389)
(-0.125889 3.92413e-19 0.0260759)
(-0.120824 0 0.0263482)
(-0.234281 -3.68965e-19 0.0462599)
(-0.141189 3.60368e-19 0.0232835)
(-0.0943679 0 0.0070698)
(0.223669 0 -0.0562229)
(0.334134 0 -0.0768742)
(0.642941 0 -0.131958)
(0.624136 0 -0.12664)
(0.898488 -5.98577e-19 -0.17806)
(0.844252 0 -0.169849)
(1.21913 0 -0.24244)
(1.18209 0 -0.238245)
(1.70189 1.00547e-18 -0.3391)
(1.68811 9.57881e-19 -0.339914)
(2.3772 0 -0.469911)
(2.22695 -8.5579e-19 -0.438942)
(2.91139 0 -0.564)
(2.45492 -7.32682e-19 -0.472953)
(3.10974 0 -0.595179)
(2.45901 -6.14101e-19 -0.480946)
(3.69761 0 -0.729918)
(32.7221 -4.95186e-21 1.50618)
(33.3043 -6.15713e-21 1.64306)
(33.831 7.32051e-21 1.44977)
(34.0573 8.25624e-21 0.986212)
(33.8649 0 0.391412)
(33.265 -9.90974e-21 -0.227445)
(32.3309 0 -0.80443)
(31.1535 1.73849e-20 -1.3024)
(29.8217 1.66152e-20 -1.70582)
(28.412 3.20378e-20 -2.01502)
(26.9844 -1.47285e-20 -2.23971)
(25.5814 1.3735e-20 -2.39339)
(24.2304 0 -2.49003)
(22.9473 0 -2.54231)
(21.7393 1.10572e-20 -2.56092)
(20.6085 -1.15393e-22 -2.55444)
(19.5532 1.77286e-22 -2.52958)
(18.5699 1.36789e-22 -2.49143)
(17.654 0 -2.44387)
(16.8007 0 -2.3898)
(16.005 0 -2.33139)
(15.2623 2.38222e-20 -2.27025)
(14.568 1.08226e-20 -2.20761)
(13.918 0 -2.14435)
(13.3086 0 -2.08114)
(12.7363 1.61205e-20 -2.01846)
(12.198 0 -1.95668)
(11.691 0 -1.89604)
(11.2127 0 -1.83672)
(10.7607 0 -1.77885)
(10.3331 -6.3643e-24 -1.72249)
(9.92799 0 -1.6677)
(9.5436 -1.56952e-24 -1.61448)
(9.17844 1.24613e-20 -1.56284)
(8.83109 2.69985e-24 -1.51276)
(8.50029 0 -1.4642)
(8.18488 0 -1.41715)
(7.88378 0 -1.37155)
(7.59604 0 -1.32737)
(7.32076 0 -1.28456)
(7.05713 0 -1.24306)
(6.80439 0 -1.20284)
(6.56184 -2.01189e-21 -1.16383)
(6.32887 -3.83117e-22 -1.12601)
(6.10485 0 -1.08931)
(5.88927 2.46226e-21 -1.05369)
(5.68159 0 -1.01911)
(5.48136 0 -0.985517)
(5.28813 -1.16804e-20 -0.95287)
(5.10149 0 -0.921133)
(4.92106 1.51703e-20 -0.890256)
(4.74649 0 -0.860211)
(4.57741 3.58847e-20 -0.830946)
(4.41356 2.44969e-23 -0.802442)
(4.25458 0 -0.774647)
(4.10028 0 -0.747546)
(3.95031 0 -0.721089)
(3.80452 4.49306e-20 -0.695265)
(3.66259 -4.60505e-20 -0.670026)
(3.52441 -4.69606e-20 -0.645364)
(3.38968 -4.77105e-20 -0.621234)
(3.25831 9.66208e-20 -0.597628)
(3.13004 4.87259e-20 -0.57451)
(3.00478 0 -0.551869)
(2.88234 0 -0.529678)
(2.7626 -2.41858e-23 -0.507924)
(2.64545 0 -0.486589)
(2.53076 0 -0.465658)
(2.41844 -9.73669e-20 -0.445119)
(2.30839 0 -0.424958)
(2.20055 0 -0.405161)
(2.09479 1.89504e-19 -0.385719)
(1.9911 -9.35709e-20 -0.366618)
(1.88932 0 -0.347854)
(1.78959 0 -0.329427)
(1.69156 0 -0.31131)
(1.59573 1.75621e-19 -0.293574)
(1.50143 0 -0.276125)
(1.40982 3.37526e-19 -0.259183)
(1.31968 -1.65121e-19 -0.242508)
(1.23296 0 -0.226515)
(1.14771 0 -0.210696)
(1.06538 1.5371e-19 -0.195373)
(0.983087 -2.75066e-23 -0.179881)
(0.902383 1.45635e-19 -0.164909)
(0.825672 -2.83194e-19 -0.150861)
(0.753198 2.75023e-19 -0.137685)
(0.685893 2.66928e-19 -0.125113)
(0.615578 2.58739e-19 -0.111816)
(0.549396 3.54123e-23 -0.0991138)
(0.477203 0 -0.0858034)
(0.419935 -2.34271e-19 -0.0751882)
(0.353076 0 -0.0633616)
(0.313699 0 -0.0551465)
(0.224941 4.21863e-19 -0.0369628)
(0.163724 0 -0.0237382)
(0.0403754 0 -0.00136425)
(0.0188713 0 0.000981541)
(-0.0704587 -3.67421e-19 0.0166693)
(-0.056501 0 0.0157735)
(-0.185816 -3.45248e-19 0.0373907)
(-0.0539318 0 0.00409544)
(0.00543084 0 -0.0180534)
(0.397138 0 -0.0962868)
(0.518171 0 -0.118559)
(0.89487 0 -0.184456)
(0.86322 -5.84183e-19 -0.176006)
(1.20763 -5.59735e-19 -0.24026)
(1.13601 5.36021e-19 -0.230035)
(1.60552 0 -0.320984)
(1.55094 0 -0.315155)
(2.19782 -1.87995e-18 -0.440637)
(2.15883 0 -0.438383)
(2.99916 8.53109e-19 -0.595547)
(2.77647 0 -0.549844)
(3.61214 7.48213e-19 -0.70025)
(3.02081 6.84679e-19 -0.582514)
(3.85969 0 -0.738085)
(3.04351 -5.73863e-19 -0.598956)
(4.59954 0 -0.915357)
(32.7739 4.66331e-21 1.05527)
(33.184 1.13419e-20 1.13935)
(33.6296 -6.89553e-21 1.05373)
(33.9947 -7.90747e-22 0.78781)
(34.1682 7.4688e-21 0.394956)
(34.0935 0 -0.0628492)
(33.7626 0 -0.536473)
(33.1955 -1.63704e-20 -0.990168)
(32.4273 -3.03797e-20 -1.40026)
(31.5004 -7.15174e-22 -1.75366)
(30.4586 1.38676e-20 -2.04582)
(29.3425 -1.29321e-20 -2.27808)
(28.1873 1.1681e-20 -2.45526)
(27.0214 0 -2.58395)
(25.8665 0 -2.67135)
(24.7383 -9.46413e-21 -2.72448)
(23.6475 3.45927e-20 -2.74978)
(22.6005 3.1804e-20 -2.75283)
(21.6009 0 -2.73838)
(20.6501 0 -2.71034)
(19.7479 0 -2.67191)
(18.8932 -6.78293e-23 -2.62563)
(18.0841 -2.03286e-20 -2.57356)
(17.3186 9.21794e-21 -2.51731)
(16.5942 1.67229e-20 -2.45816)
(15.9087 -3.03081e-20 -2.39713)
(15.2596 1.36469e-20 -2.33501)
(14.6445 1.22698e-20 -2.2724)
(14.0614 1.0991e-20 -2.20981)
(13.508 0 -2.14759)
(12.9824 -8.71531e-21 -2.08604)
(12.4828 7.68297e-21 -2.02537)
(12.0075 -6.74316e-21 -1.96575)
(11.5547 -1.17256e-20 -1.90729)
(11.1232 -2.02165e-20 -1.85007)
(10.7114 0 -1.79416)
(10.3182 0 -1.73959)
(9.94227 -5.95485e-21 -1.68637)
(9.5826 0 -1.6345)
(9.23817 3.69879e-21 -1.58399)
(8.90802 2.70448e-21 -1.53481)
(8.59129 0 -1.48694)
(8.28716 3.80211e-21 -1.44035)
(7.99489 3.60537e-22 -1.39502)
(7.71376 0 -1.35091)
(7.44312 -2.31689e-21 -1.30798)
(7.18236 -3.4634e-21 -1.26619)
(6.93092 0 -1.22551)
(6.68825 1.09599e-20 -1.18589)
(6.45387 -6.33401e-21 -1.14731)
(6.22728 -1.42166e-20 -1.10971)
(6.00808 0 -1.07307)
(5.7958 -2.47135e-23 -1.03733)
(5.59013 3.58909e-20 -1.00248)
(5.39062 0 -0.968462)
(5.19702 0 -0.935257)
(5.00891 -2.04691e-20 -0.902813)
(4.8261 -2.11122e-20 -0.87112)
(4.6482 4.32567e-20 -0.840123)
(4.47503 4.41441e-20 -0.809815)
(4.30627 4.48451e-20 -0.780144)
(4.14176 -4.53903e-20 -0.751104)
(3.9812 -9.15537e-20 -0.72265)
(3.82447 0 -0.694774)
(3.67131 0 -0.667442)
(3.52161 -9.24411e-20 -0.64064)
(3.37516 0 -0.614346)
(3.23185 0 -0.588544)
(3.09154 9.14485e-20 -0.563217)
(2.9541 0 -0.53835)
(2.81944 -8.98892e-20 -0.513924)
(2.68741 -3.23399e-23 -0.489932)
(2.55799 8.78452e-20 -0.466353)
(2.43097 0 -0.443187)
(2.30653 0 -0.42043)
(2.18425 0 -0.39806)
(2.0647 1.6471e-19 -0.376153)
(1.94713 0 -0.354612)
(1.83284 -1.58308e-19 -0.333683)
(1.72046 3.09745e-19 -0.313097)
(1.61216 0 -0.293321)
(1.50571 0 -0.273743)
(1.40279 0 -0.254747)
(1.30021 -2.72569e-23 -0.235578)
(1.19993 -1.36529e-19 -0.217167)
(1.1046 -2.6536e-19 -0.199911)
(1.01415 -2.57763e-19 -0.183662)
(0.929868 2.50065e-19 -0.168021)
(0.842109 0 -0.15154)
(0.760339 2.34651e-19 -0.135924)
(0.671545 0 -0.119761)
(0.601565 2.19433e-19 -0.10692)
(0.519211 0 -0.0925909)
(0.469907 0 -0.0821545)
(0.362469 0 -0.0600267)
(0.292732 -3.80605e-19 -0.0446786)
(0.150503 -3.66831e-19 -0.0195237)
(0.132838 0 -0.0186771)
(0.0285879 3.43751e-19 -0.000840176)
(0.0556819 -3.33103e-19 -0.00367368)
(-0.0857624 3.2304e-19 0.0181803)
(0.0910726 -3.15332e-19 -0.0271434)
(0.16174 0 -0.055653)
(0.626827 0 -0.148714)
(0.752201 0 -0.171241)
(1.19648 0 -0.247373)
(1.14813 5.46263e-19 -0.23503)
(1.56523 5.80838e-23 -0.312501)
(1.47217 -1.0022e-18 -0.299882)
(2.03903 0 -0.409689)
(1.96048 0 -0.401488)
(2.73637 8.78511e-19 -0.55182)
(2.66018 0 -0.544544)
(3.65004 -7.97233e-19 -0.72779)
(3.34078 0 -0.66454)
(4.33005 -1.39825e-18 -0.839769)
(3.59412 0 -0.693753)
(4.63224 0 -0.885057)
(3.64508 5.36078e-19 -0.722012)
(5.51134 0 -1.10658)
(32.7955 0 0.702825)
(33.0963 -5.2143e-21 0.743287)
(33.4328 0 0.691087)
(33.7629 -6.57276e-21 0.525415)
(34.0235 -1.3397e-20 0.261071)
(34.1635 0 -0.0701931)
(34.1546 6.68103e-21 -0.436939)
(33.9851 0 -0.813073)
(33.6555 9.09237e-22 -1.1784)
(33.1752 -2.57234e-20 -1.51842)
(32.5601 0 -1.82382)
(31.8306 0 -2.08968)
(31.0088 -1.09866e-20 -2.31441)
(30.1171 0 -2.49874)
(29.1767 0 -2.64493)
(28.2066 0 -2.75628)
(27.2231 -1.61576e-20 -2.83655)
(26.2397 -1.48707e-20 -2.88973)
(25.2671 -1.34747e-20 -2.9197)
(24.3132 0 -2.93012)
(23.3841 0 -2.92429)
(22.4838 -1.0463e-20 -2.90514)
(21.6148 9.53484e-21 -2.8752)
(20.7787 -8.66972e-21 -2.83662)
(19.9759 -1.57282e-20 -2.79123)
(19.2065 2.8388e-20 -2.74054)
(18.4699 -5.4856e-23 -2.68583)
(17.7653 -1.15397e-20 -2.62813)
(17.0917 -1.03369e-20 -2.56829)
(16.4477 0 -2.50702)
(15.8321 0 -2.44489)
(15.2437 -7.22531e-21 -2.38236)
(14.681 0 -2.3198)
(14.1428 1.10266e-20 -2.25752)
(13.6277 9.5042e-21 -2.19574)
(13.1347 -8.09181e-21 -2.13467)
(12.6624 0 -2.07445)
(12.2097 5.59921e-21 -2.01519)
(11.7756 4.49665e-21 -1.95698)
(11.359 3.55951e-24 -1.89987)
(10.959 -5.09002e-21 -1.84392)
(10.5747 0 -1.78915)
(10.2051 -1.79436e-21 -1.73557)
(9.84956 0 -1.6832)
(9.5072 0 -1.63201)
(9.17735 0 -1.58202)
(8.85929 1.35976e-23 -1.53319)
(8.55241 0 -1.48551)
(8.25608 -5.14335e-21 -1.43894)
(7.96976 1.1892e-20 -1.39348)
(7.69286 1.33595e-20 -1.34908)
(7.42493 0 -1.30571)
(7.16542 -1.58216e-20 -1.26334)
(6.91395 -3.36763e-20 -1.22194)
(6.67001 0 -1.18147)
(6.43329 0 -1.14191)
(6.20331 1.92277e-20 -1.10322)
(5.97981 1.97938e-20 -1.06537)
(5.76235 -2.03052e-20 -1.02832)
(5.55072 -4.13922e-20 -0.992061)
(5.3445 0 -0.956532)
(5.14352 0 -0.921734)
(4.94742 2.81483e-23 -0.887614)
(4.75603 -4.31899e-20 -0.854169)
(4.56906 0 -0.821356)
(4.38634 4.33754e-20 -0.789166)
(4.20765 0 -0.75757)
(4.03282 0 -0.726553)
(3.86169 0 -0.696093)
(3.69408 0 -0.666175)
(3.52989 3.41948e-23 -0.636775)
(3.36892 -3.1987e-23 -0.607888)
(3.21117 -8.23474e-20 -0.579487)
(3.05636 0 -0.551578)
(2.90469 -7.99537e-20 -0.524151)
(2.7557 0 -0.497193)
(2.61002 -1.54449e-19 -0.47078)
(2.46683 1.51428e-19 -0.444821)
(2.32752 -1.48338e-19 -0.419579)
(2.19062 -1.45161e-19 -0.39476)
(2.05847 0 -0.370878)
(1.92861 1.38438e-19 -0.347219)
(1.80291 0 -0.32423)
(1.67801 -1.31474e-19 -0.301086)
(1.5562 -1.27865e-19 -0.278974)
(1.44036 2.4859e-19 -0.258255)
(1.32996 0 -0.238662)
(1.22686 -4.68379e-19 -0.219666)
(1.11991 0 -0.199751)
(1.02122 2.19659e-19 -0.181024)
(0.914431 0 -0.161864)
(0.830792 2.0537e-19 -0.146679)
(0.73158 0 -0.129701)
(0.671678 3.83394e-19 -0.116865)
(0.545131 -3.69545e-19 -0.0907473)
(0.468422 3.5617e-19 -0.0735742)
(0.308652 3.43245e-19 -0.0461912)
(0.297383 0 -0.0474629)
(0.178952 -6.43107e-19 -0.0278495)
(0.223987 6.23125e-19 -0.0335688)
(0.0740737 0 -0.0126131)
(0.301449 2.94911e-19 -0.0718163)
(0.381126 0 -0.107017)
(0.918646 0 -0.214585)
(1.04177 -5.50633e-19 -0.235943)
(1.55315 0 -0.321673)
(1.48378 0 -0.304637)
(1.97549 4.8914e-19 -0.395538)
(1.85571 9.36605e-19 -0.379981)
(2.52149 4.48665e-19 -0.508891)
(2.41091 0 -0.497338)
(3.31629 0 -0.672388)
(3.18979 0 -0.657935)
(4.3272 0 -0.866052)
(3.91833 6.98296e-19 -0.782697)
(5.06441 6.53133e-19 -0.982361)
(4.17547 0 -0.807031)
(5.42552 0 -1.03608)
(4.2644 0 -0.850298)
(6.41824 0 -1.3011)
(32.7916 4.15228e-21 0.414922)
(33.0233 0 0.428308)
(33.2787 4.87444e-21 0.385121)
(33.5432 0 0.269344)
(33.7857 5.98721e-21 0.0815177)
(33.9749 0 -0.163637)
(34.0877 -6.27932e-21 -0.446954)
(34.1093 1.14999e-20 -0.750477)
(34.0303 2.34896e-20 -1.05905)
(33.8461 7.3561e-22 -1.36067)
(33.5562 0 -1.64633)
(33.1638 0 -1.90984)
(32.6755 0 -2.14733)
(32.1005 0 -2.35673)
(31.4497 0 -2.5373)
(30.7352 0 -2.68929)
(29.9695 1.4547e-20 -2.81373)
(29.1649 -1.34674e-20 -2.9122)
(28.333 1.26609e-20 -2.98669)
(27.4843 0 -3.03942)
(26.6282 0 -3.07272)
(25.7724 9.62861e-21 -3.08893)
(24.9236 8.79794e-21 -3.09032)
(24.0869 8.01811e-21 -3.079)
(23.2664 0 -3.05691)
(22.4652 -1.33032e-20 -3.0258)
(21.6855 -2.39402e-20 -2.98723)
(20.9288 1.07425e-20 -2.94255)
(20.1959 0 -2.89294)
(19.4874 0 -2.83941)
(18.8034 0 -2.78284)
(18.1437 6.75288e-21 -2.72394)
(17.5079 0 -2.66336)
(16.8955 0 -2.60161)
(16.3058 8.90194e-21 -2.53913)
(15.7382 7.60149e-21 -2.47629)
(15.1918 0 -2.41339)
(14.6659 5.2552e-21 -2.35068)
(14.1595 -8.44572e-21 -2.28837)
(13.6719 -3.26989e-21 -2.22662)
(13.2023 2.39263e-21 -2.16557)
(12.7498 0 -2.10533)
(12.3137 0 -2.04598)
(11.8932 0 -1.98759)
(11.4875 -8.81206e-22 -1.93019)
(11.096 0 -1.87384)
(10.7179 3.04414e-21 -1.81853)
(10.3526 3.96291e-21 -1.76431)
(9.99947 0 -1.71114)
(9.65793 -5.57671e-21 -1.65905)
(9.32735 0 -1.60801)
(9.00724 0 -1.55803)
(8.69699 -1.48088e-20 -1.50906)
(8.3962 2.13018e-23 -1.46111)
(8.10429 1.66243e-20 -1.41413)
(7.82092 0 -1.36812)
(7.54554 0 -1.32303)
(7.27787 -1.85763e-20 -1.27887)
(7.01739 0 -1.23557)
(6.76387 3.88412e-20 -1.19313)
(6.51682 0 -1.15151)
(6.27606 0 -1.11069)
(6.04114 8.05418e-20 -1.07063)
(5.81189 8.10077e-20 -1.03133)
(5.58793 4.06156e-20 -0.992742)
(5.3691 0 -0.954857)
(5.1551 0 -0.917645)
(4.94575 4.04164e-20 -0.881093)
(4.74084 8.03663e-20 -0.845173)
(4.54017 0 -0.809874)
(4.34359 7.90439e-20 -0.775165)
(4.15089 -7.8176e-20 -0.741047)
(3.96203 7.71952e-20 -0.707483)
(3.77672 -7.60863e-20 -0.674492)
(3.59515 7.49382e-20 -0.642052)
(3.41683 0 -0.610167)
(3.24243 0 -0.578908)
(3.07107 -1.41891e-19 -0.548195)
(2.90424 2.77925e-19 -0.518303)
(2.74035 0 -0.488919)