/*--------------------------------*- C++ -*----------------------------------*\
| =========                 |                                                 |
| \\      /  F ield         | OpenFOAM: The Open Source CFD Toolbox           |
|  \\    /   O peration     | Version:  2412                                  |
|   \\  /    A nd           | Website:  www.openfoam.com                      |
|    \\/     M anipulation  |                                                 |
\*---------------------------------------------------------------------------*/
FoamFile
{
    version     2.0;
    format      ascii;
    arch        "LSB;label=32;scalar=64";
    class       volVectorField;
    location    "1.285";
    object      U;
}
// * * * * * * * * * * * * * * * * * * * * * * * * * * * * * * * * * * * * * //

dimensions      [0 1 -1 0 0 0 0];

internalField   nonuniform List<vector> 
12600
(
(18.741 1.23851e-21 2.0953)
(11.6205 1.60892e-20 0.451264)
(7.35183 1.89158e-20 -0.477814)
(5.08999 0 -0.709272)
(3.97688 1.70934e-20 -0.682372)
(3.33605 1.59161e-20 -0.607653)
(2.89469 0 -0.539952)
(2.56335 0 -0.484476)
(2.30363 -4.78186e-20 -0.438991)
(2.09339 0 -0.401226)
(1.91892 2.0049e-20 -0.369334)
(1.7713 1.83541e-20 -0.341986)
(1.6444 -1.68105e-20 -0.318232)
(1.53389 0 -0.297376)
(1.43659 -1.40828e-20 -0.278893)
(1.35011 0 -0.26238)
(1.27262 4.72958e-20 -0.247521)
(1.20269 0 -0.234067)
(1.13919 -1.97823e-20 -0.221817)
(1.08121 -1.80861e-20 -0.210605)
(1.028 1.65039e-20 -0.200298)
(0.978967 5.39834e-24 -0.190784)
(0.933594 0 -0.181969)
(0.891456 -2.48641e-20 -0.173773)
(0.852194 0 -0.166131)
(0.815501 0 -0.158983)
(0.781113 -1.84002e-20 -0.15228)
(0.748802 0 -0.145979)
(0.718372 4.08985e-24 -0.140042)
(0.689648 1.32627e-20 -0.134437)
(0.662479 1.1795e-20 -0.129134)
(0.63673 1.04357e-20 -0.124107)
(0.612284 -9.17711e-21 -0.119334)
(0.589034 -1.60247e-20 -0.114795)
(0.566884 -1.38697e-20 -0.11047)
(0.545752 1.18666e-20 -0.106344)
(0.525558 0 -0.102401)
(0.506236 -8.33648e-21 -0.098629)
(0.487721 0 -0.0950148)
(0.469958 5.3225e-21 -0.091548)
(0.452891 0 -0.0882176)
(0.436479 1.75394e-23 -0.0850155)
(0.42067 0 -0.0819317)
(0.405433 1.59662e-23 -0.0789601)
(0.39072 -6.88874e-22 -0.0760914)
(0.37651 2.40399e-21 -0.0733213)
(0.362755 -3.99693e-21 -0.0706407)
(0.349445 0 -0.0680474)
(0.336529 0 -0.0655315)
(0.324009 -7.9272e-21 -0.0630935)
(0.311829 -1.79951e-20 -0.0607222)
(0.300003 -1.99246e-20 -0.0584208)
(0.288467 1.94689e-23 -0.0561761)
(0.277253 -2.31821e-20 -0.053995)
(0.26628 0 -0.0518611)
(0.255603 2.57859e-20 -0.0497857)
(0.245121 2.68469e-20 -0.0477486)
(0.234917 2.77575e-20 -0.0457663)
(0.224862 0 -0.0438132)
(0.215073 0 -0.0419126)
(0.205386 0 -0.0400321)
(0.195962 -6.05067e-20 -0.0382034)
(0.186592 0 -0.0363854)
(0.177488 0 -0.0346198)
(0.168388 1.24217e-19 -0.0328553)
(0.159566 0 -0.0311452)
(0.150698 0 -0.0294264)
(0.142126 0 -0.0277654)
(0.133458 -1.24228e-19 -0.0260862)
(0.125109 1.23628e-19 -0.0244691)
(0.116618 1.22773e-19 -0.0228248)
(0.108477 2.34858e-23 -0.0212483)
(0.100148 -1.2052e-19 -0.0196358)
(0.0922133 0 -0.0180996)
(0.084034 1.17582e-19 -0.0165164)
(0.0763375 0 -0.0150263)
(0.0682817 0 -0.0134671)
(0.0609155 0 -0.0120407)
(0.052905 2.86403e-23 -0.0104902)
(0.0460721 2.15862e-19 -0.00916652)
(0.0379243 2.11193e-19 -0.0075895)
(0.0319925 -2.06635e-19 -0.00643899)
(0.0233774 -2.01557e-19 -0.00477188)
(0.018886 0 -0.00389798)
(0.00939276 0 -0.00206232)
(0.00685797 3.7309e-19 -0.0015626)
(-0.00367532 -7.23021e-19 0.000474036)
(-0.00431238 7.03386e-19 0.00060347)
(-0.0150556 3.39771e-19 0.0026812)
(-0.015505 0 0.00276885)
(-0.0232046 -6.35952e-19 0.00427023)
(-0.0289656 3.06926e-19 0.00536231)
(-0.0254338 -2.96885e-19 0.00472549)
(-0.0440337 5.66822e-19 0.00829713)
(-0.0266333 0 0.0049548)
(-0.0535145 0 0.0101501)
(-0.0353375 0 0.00657863)
(-0.0527897 0 0.0100424)
(-0.0441712 0 0.00832877)
(-0.0537565 0 0.0102464)
(-0.0575223 -4.24441e-19 0.010901)
(-0.051908 -8.05242e-19 0.00988984)
(-0.065385 -7.69748e-19 0.0124677)
(-0.0589593 0 0.0112459)
(-0.0807358 0 0.0153622)
(-0.0410348 0 0.00794513)
(-0.114272 -6.15115e-19 0.0218571)
(-0.0610869 -1.22697e-18 0.0114152)
(-0.0884367 5.605e-19 0.0171486)
(-0.103734 0 0.0197378)
(-0.0848838 -1.03081e-18 0.0162732)
(-0.135705 0 0.0258838)
(-0.102582 -9.50753e-19 0.0193531)
(-0.0940405 8.93651e-19 0.0182375)
(-0.181868 -8.39055e-19 0.03466)
(-0.0768967 -8.47661e-19 0.0142662)
(-0.110195 7.68496e-19 0.0212634)
(-0.144977 -5.36423e-23 0.0275806)
(-0.11587 7.1309e-19 0.0218259)
(-0.0525252 0 0.00967555)
(29.151 -1.25027e-21 4.02711)
(25.107 0 1.85893)
(20.2444 -1.91448e-20 -0.213465)
(16.0778 0 -1.21221)
(13.1181 -1.73206e-20 -1.50777)
(11.0753 -3.04064e-20 -1.51876)
(9.60296 -1.40726e-20 -1.44112)
(8.49085 0 -1.34349)
(7.61791 3.55887e-22 -1.24809)
(6.91131 -2.18703e-20 -1.16101)
(6.3254 2.0077e-20 -1.08292)
(5.83014 1.84283e-20 -1.01309)
(5.40494 -1.69126e-20 -0.95053)
(5.03511 1.55181e-20 -0.894248)
(4.70991 2.85244e-20 -0.843386)
(4.42126 0 -0.797212)
(4.16297 -6.45663e-23 -0.755105)
(3.9302 2.18985e-20 -0.716544)
(3.71911 2.00701e-20 -0.68109)
(3.52663 0 -0.648371)
(3.35024 0 -0.618073)
(3.18789 1.5249e-20 -0.589927)
(3.03784 0 -0.563701)
(2.89867 1.26043e-20 -0.539197)
(2.76916 -2.28468e-20 -0.516244)
(2.64826 0 -0.494691)
(2.53509 1.86497e-20 -0.474408)
(2.42888 0 -0.45528)
(2.32896 -1.50392e-20 -0.437206)
(2.23475 -2.68691e-20 -0.420095)
(2.14574 -2.38913e-20 -0.403868)
(2.06147 -1.05628e-20 -0.388454)
(1.98155 9.28634e-21 -0.373788)
(1.90561 3.24392e-20 -0.359815)
(1.83335 2.80709e-20 -0.346481)
(1.76448 0 -0.333741)
(1.69873 0 -0.321551)
(1.63588 -1.73194e-23 -0.309874)
(1.57572 0 -0.298672)
(1.51806 -5.37328e-21 -0.287917)
(1.46271 0 -0.277575)
(1.40954 -5.58135e-21 -0.267623)
(1.35837 0 -0.258031)
(1.30909 -1.22742e-21 -0.248782)
(1.26156 0 -0.239847)
(1.2157 -2.42066e-21 -0.231215)
(1.17135 0 -0.222857)
(1.12846 0 -0.214768)
(1.08689 6.74533e-21 -0.206917)
(1.04663 0 -0.199307)
(1.0075 0 -0.191901)
(0.969538 0 -0.184714)
(0.932544 2.17029e-20 -0.1777)
(0.896606 4.64514e-20 -0.170885)
(0.861481 0 -0.164214)
(0.827324 0 -0.157728)
(0.793829 -2.68225e-20 -0.151358)
(0.761238 -2.77561e-20 -0.145162)
(0.72916 0 -0.139053)
(0.697943 0 -0.133112)
(0.66709 0 -0.12723)
(0.637081 0 -0.121513)
(0.607282 -6.09335e-20 -0.115825)
(0.578332 6.14278e-20 -0.110307)
(0.549434 -1.2351e-19 -0.104786)
(0.521416 0 -0.0994414)
(0.49329 0 -0.0940625)
(0.466092 0 -0.0888726)
(0.438631 4.73727e-23 -0.0836165)
(0.412167 -1.22446e-19 -0.0785646)
(0.385288 -1.21488e-19 -0.0734166)
(0.359497 2.40712e-19 -0.068492)
(0.333147 3.58976e-23 -0.0634423)
(0.308016 -1.17542e-19 -0.0586432)
(0.282151 -1.15909e-19 -0.0536843)
(0.257763 0 -0.049027)
(0.232299 0 -0.0441437)
(0.208921 0 -0.0396802)
(0.18362 2.16062e-19 -0.0348271)
(0.161859 0 -0.0306745)
(0.136166 0 -0.0257446)
(0.117132 2.02237e-19 -0.0221186)
(0.0900374 1.97057e-19 -0.016916)
(0.075387 0 -0.0141383)
(0.0456083 0 -0.00841363)
(0.0369777 0 -0.00679729)
(0.00392949 7.03743e-19 -0.00044412)
(0.00128774 -4.2915e-23 7.2618e-06)
(-0.0326748 3.29962e-19 0.00659186)
(-0.0342478 -3.19792e-19 0.00674886)
(-0.0596105 6.16309e-19 0.0117762)
(-0.0762023 2.97088e-19 0.0147379)
(-0.0687382 5.74198e-19 0.0134573)
(-0.123522 0 0.0239141)
(-0.073495 0 0.0141554)
(-0.155227 0 0.0302084)
(-0.0990211 0 0.0187577)
(-0.15544 4.61546e-19 0.0302286)
(-0.127644 0 0.0243552)
(-0.159587 0 0.031066)
(-0.168329 -4.0696e-19 0.032196)
(-0.154584 3.85691e-19 0.0299196)
(-0.195179 1.47329e-18 0.0376103)
(-0.176262 -6.99093e-19 0.0341471)
(-0.238639 0 0.0456289)
(-0.12911 0 0.0252609)
(-0.342048 0 0.0664043)
(-0.178841 5.84355e-19 0.0334393)
(-0.273326 -5.3343e-19 0.0536063)
(-0.305763 0 0.0585701)
(-0.258954 1.95872e-18 0.0502737)
(-0.402093 9.24078e-19 0.077742)
(-0.301548 1.80363e-18 0.0570089)
(-0.290622 0 0.0571732)
(-0.529714 0 0.101959)
(-0.220394 -8.02142e-19 0.0406876)
(-0.337534 0 0.0662279)
(-0.420825 -7.10299e-19 0.0808708)
(-0.332476 -6.73405e-19 0.062537)
(-0.14108 0 0.0258999)
(31.8945 0 3.8983)
(31.0797 0 2.81984)
(28.5496 -1.29673e-20 1.02404)
(25.2064 0 -0.38293)
(21.9547 0 -1.22688)
(19.1821 1.51156e-20 -1.65159)
(16.9243 1.33269e-20 -1.8198)
(15.0997 0 -1.85134)
(13.6125 4.20682e-22 -1.81758)
(12.3825 2.07191e-20 -1.75504)
(11.3494 -3.78324e-20 -1.68123)
(10.4688 -1.74607e-20 -1.60449)
(9.70853 1.14541e-22 -1.52881)
(9.04473 -1.47046e-20 -1.45605)
(8.45948 -1.34882e-20 -1.38699)
(7.93907 1.23171e-20 -1.32188)
(7.47282 -2.26636e-20 -1.26072)
(7.05233 -2.07519e-20 -1.20334)
(6.67085 0 -1.14953)
(6.32292 0 -1.09903)
(6.00409 1.58126e-20 -1.05161)
(5.71067 1.44185e-20 -1.00702)
(5.43957 0 -0.965043)
(5.1882 0 -0.925465)
(4.95438 2.16487e-20 -0.888095)
(4.73622 0 -0.852761)
(4.53211 -3.53366e-20 -0.819302)
(4.34067 1.58955e-20 -0.787574)
(4.16067 0 -0.757447)
(3.99106 1.2731e-20 -0.728801)
(3.83091 1.13204e-20 -0.701527)
(3.67939 0 -0.675528)
(3.53579 -8.81007e-21 -0.650712)
(3.39944 -1.53718e-20 -0.626998)
(3.26977 1.21064e-23 -0.60431)
(3.14627 0 -0.582582)
(3.02846 0 -0.561746)
(2.91592 7.99205e-21 -0.541748)
(2.80826 0 -0.522532)
(2.70515 0 -0.50405)
(2.60626 0 -0.486253)
(2.51131 0 -0.469105)
(2.42 0 -0.452557)
(2.33214 0 -0.436584)
(2.24746 0 -0.421137)
(2.16579 2.24802e-21 -0.406202)
(2.08688 -3.75291e-21 -0.391729)
(2.01063 0 -0.377713)
(1.93678 -6.38171e-21 -0.364098)
(1.86529 0 -0.350897)
(1.79586 0 -0.338041)
(1.72856 1.88341e-20 -0.325561)
(1.66302 0 -0.313376)
(1.59939 -2.19468e-20 -0.301535)
(1.53725 2.3209e-20 -0.289939)
(1.47685 0 -0.278664)
(1.41768 2.53531e-20 -0.267584)
(1.36012 0 -0.25681)
(1.30353 0 -0.246182)
(1.24847 0 -0.235849)
(1.19411 5.60794e-20 -0.225612)
(1.14125 5.68975e-20 -0.21567)
(1.08881 2.8463e-23 -0.205771)
(1.03787 -1.15984e-19 -0.196172)
(0.987073 2.49645e-23 -0.186562)
(0.937822 0 -0.177267)
(0.888433 0 -0.167904)
(0.840668 -1.16607e-19 -0.158877)
(0.792487 3.81773e-23 -0.149727)
(0.746043 0 -0.140941)
(0.698918 0 -0.131978)
(0.653678 -1.1348e-19 -0.123413)
(0.607501 2.8909e-23 -0.114619)
(0.563428 2.68841e-23 -0.106271)
(0.518115 0 -0.0976343)
(0.475331 0 -0.0895267)
(0.430733 -2.11345e-19 -0.0810231)
(0.389674 2.07553e-19 -0.0732396)
(0.345384 0 -0.064796)
(0.307057 0 -0.0575292)
(0.262136 0 -0.0489688)
(0.228418 0 -0.0425805)
(0.181145 0 -0.0335718)
(0.154861 0 -0.0286136)
(0.103019 0 -0.0187174)
(0.0870303 0 -0.015753)
(0.0295039 -6.61618e-19 -0.00474737)
(0.0239679 -3.21429e-19 -0.0038338)
(-0.0355031 -3.10122e-19 0.00771249)
(-0.0385203 3.00501e-19 0.00784563)
(-0.0843359 -5.78963e-19 0.0171728)
(-0.111205 -2.79053e-19 0.0214775)
(-0.103303 -2.69606e-19 0.0206817)
(-0.193526 0 0.0374122)
(-0.113218 0 0.0219295)
(-0.251256 0 0.0491907)
(-0.155325 0 0.0290773)
(-0.255478 -4.33007e-19 0.0500258)
(-0.206001 0 0.0390697)
(-0.264302 0 0.0518871)
(-0.2751 3.81576e-19 0.0522622)
(-0.257042 0 0.0499503)
(-0.324551 -6.90427e-19 0.0625384)
(-0.293828 6.5513e-19 0.0571958)
(-0.394589 0 0.0747102)
(-0.223963 0 0.0447244)
(-0.570193 0 0.11109)
(-0.294199 5.47158e-19 0.0538086)
(-0.467786 0 0.0929996)
(-0.503625 -4.84909e-19 0.0957838)
(-0.439356 -8.71954e-24 0.0860321)
(-0.665099 -8.6484e-19 0.128572)
(-0.497171 -1.68761e-18 0.0924176)
(-0.496405 0 0.0994455)
(-0.864084 7.43138e-19 0.165045)
(-0.356278 7.50307e-19 0.0633437)
(-0.572891 6.79793e-19 0.114156)
(-0.681526 0 0.130044)
(-0.535647 6.29658e-19 0.0975694)
(-0.211923 0 0.0364198)
(32.4161 0 2.95659)
(32.9818 0 2.76985)
(32.4279 1.22584e-20 1.72464)
(30.7842 0 0.522567)
(28.5302 -1.22999e-20 -0.483303)
(26.1131 2.50184e-20 -1.20676)
(23.7927 0 -1.67014)
(21.6855 -2.18338e-20 -1.93447)
(19.8249 2.09328e-20 -2.06376)
(18.2014 1.89277e-20 -2.10808)
(16.7875 1.77876e-20 -2.10127)
(15.5519 -1.61653e-20 -2.06464)
(14.4663 1.50472e-20 -2.01113)
(13.5061 -2.74287e-20 -1.94859)
(12.6516 0 -1.88173)
(11.8861 -2.32354e-20 -1.81344)
(11.1966 0 -1.74545)
(10.5721 0 -1.67883)
(10.0036 0 -1.61417)
(9.48384 1.63348e-20 -1.55183)
(9.00655 -3.41845e-23 -1.49196)
(8.56662 -2.60014e-23 -1.43462)
(8.15967 1.23958e-20 -1.37979)
(7.78201 0 -1.32741)
(7.43047 0 -1.27739)
(7.10233 0 -1.22963)
(6.79524 3.34058e-20 -1.18402)
(6.50714 -5.98453e-24 -1.14044)
(6.23626 0 -1.09879)
(5.98103 0 -1.05895)
(5.74006 0 -1.02082)
(5.51213 0 -0.984309)
(5.29615 1.66646e-20 -0.949314)
(5.09115 0 -0.91575)
(4.89627 -1.25883e-20 -0.88353)
(4.71072 0 -0.852579)
(4.53379 0 -0.822821)
(4.36486 -7.57852e-21 -0.794189)
(4.20334 0 -0.766614)
(4.04871 0 -0.740042)
(3.90048 3.64084e-21 -0.714407)
(3.75824 -5.06473e-21 -0.689666)
(3.62155 0 -0.665756)
(3.49008 -1.16366e-21 -0.642646)
(3.36343 0 -0.62027)
(3.24137 -4.22805e-21 -0.598613)
(3.1235 1.88501e-23 -0.577603)
(3.00968 0 -0.557241)
(2.8995 0 -0.537446)
(2.79291 7.05772e-21 -0.518237)
(2.68948 1.60316e-20 -0.499521)
(2.58925 -3.55392e-20 -0.481341)
(2.49172 0 -0.463582)
(2.39709 -2.06693e-20 -0.446317)
(2.30474 -2.19085e-20 -0.429404)
(2.21503 -2.2954e-20 -0.412953)
(2.12721 -2.38853e-20 -0.396783)
(2.04183 0 -0.381055)
(1.95793 0 -0.365537)
(1.87636 -5.19172e-20 -0.350448)
(1.79587 -1.05764e-19 -0.335498)
(1.71763 -5.3664e-20 -0.320975)
(1.64008 3.05367e-23 -0.306514)
(1.56477 5.4669e-20 -0.292492)
(1.48974 5.49319e-20 -0.278451)
(1.417 0 -0.264871)
(1.34411 0 -0.25119)
(1.27362 1.09888e-19 -0.238002)
(1.20258 2.18767e-19 -0.224631)
(1.13409 0 -0.211793)
(1.06465 1.0783e-19 -0.198692)
(0.997964 1.06813e-19 -0.186176)
(0.929951 1.05625e-19 -0.173321)
(0.865001 2.08563e-19 -0.161116)
(0.798278 0 -0.148489)
(0.73521 0 -0.136628)
(0.669551 1.9888e-19 -0.124197)
(0.60896 -3.90513e-19 -0.11279)
(0.543782 -1.91299e-19 -0.100458)
(0.487075 0 -0.0897697)
(0.421037 0 -0.0772938)
(0.370872 0 -0.067831)
(0.301515 0 -0.0547433)
(0.261941 0 -0.0472971)
(0.186046 0 -0.0329523)
(0.161254 -3.21094e-19 -0.0283727)
(0.0770715 4.19374e-23 -0.0123742)
(0.0675785 3.01812e-19 -0.0108486)
(-0.0199422 0 0.00609617)
(-0.0248167 2.82064e-19 0.00617013)
(-0.0942397 2.71718e-19 0.0205084)
(-0.130744 0 0.0256768)
(-0.126517 -2.52949e-19 0.0264908)
(-0.250995 -4.82147e-19 0.0488779)
(-0.143683 0 0.0284527)
(-0.338856 0 0.067032)
(-0.202242 0 0.037798)
(-0.350997 -4.0591e-19 0.0694615)
(-0.277069 0 0.0525458)
(-0.366356 0 0.0727288)
(-0.375648 3.57504e-19 0.0712497)
(-0.358227 -3.38713e-19 0.070154)
(-0.451379 0 0.0872828)
(-0.410351 0 0.0804486)
(-0.547057 0 0.103117)
(-0.324802 0 0.0661111)
(-0.795583 0 0.155695)
(-0.406951 -3.58949e-23 0.0733429)
(-0.669973 0 0.134955)
(-0.694771 4.53763e-19 0.131754)
(-0.625029 -8.57703e-19 0.12354)
(-0.921183 0 0.178524)
(-0.688505 7.05278e-23 0.126644)
(-0.708353 0 0.144389)
(-1.18079 -1.27193e-22 0.224472)
(-0.484197 0 0.083686)
(-0.812962 -6.35583e-19 0.16434)
(-0.920149 0 0.174918)
(-0.722592 5.88447e-19 0.128075)
(-0.260942 0 0.0417656)
(32.5185 0 2.10445)
(33.276 0 2.2295)
(33.6224 0 1.75382)
(33.2577 0 0.959121)
(32.2344 1.16102e-20 0.116653)
(30.7599 -9.01373e-22 -0.633068)
(29.0395 0 -1.2346)
(27.2324 2.06081e-20 -1.67878)
(25.4481 0 -1.98278)
(23.7528 -3.52303e-20 -2.17487)
(22.1788 0 -2.28364)
(20.7364 1.52611e-20 -2.33312)
(19.423 0 -2.34162)
(18.2299 2.58971e-20 -2.3224)
(17.1458 -1.17949e-20 -2.28478)
(16.1592 2.1793e-20 -2.2352)
(15.2592 -1.99491e-20 -2.17811)
(14.4359 -1.831e-20 -2.11657)
(13.6804 0 -2.0527)
(12.9851 -1.54245e-20 -1.98795)
(12.3433 -1.40908e-20 -1.92331)
(11.7492 -2.56706e-20 -1.85946)
(11.1977 -1.1705e-20 -1.79686)
(10.6843 0 -1.73581)
(10.2053 0 -1.67649)
(9.7573 0 -1.61902)
(9.33735 -1.57664e-20 -1.56343)
(8.94285 -1.41883e-20 -1.50975)
(8.57153 0 -1.45795)
(8.22136 0 -1.40801)
(7.89052 1.01089e-20 -1.35985)
(7.57743 0 -1.31345)
(7.28064 1.37493e-24 -1.26871)
(6.99887 -1.37441e-20 -1.22559)
(6.73095 1.18992e-20 -1.18401)
(6.47585 0 -1.1439)
(6.2326 0 -1.1052)
(6.00037 7.15277e-21 -1.06784)
(5.77835 0 -1.03175)
(5.56585 0 -0.996883)
(5.36219 -3.43572e-21 -0.963165)
(5.16681 4.7791e-21 -0.930553)
(4.97912 0 -0.898973)
(4.79866 1.09789e-21 -0.868397)
(4.62489 0 -0.838745)
(4.45748 1.98498e-21 -0.810003)
(4.2959 3.32648e-21 -0.782083)
(4.13993 0 -0.754993)
(3.98904 5.63759e-21 -0.728629)
(3.84313 -6.65583e-21 -0.703023)
(3.70161 -3.02051e-20 -0.678051)
(3.56455 1.6741e-20 -0.653776)
(3.43127 -1.81652e-20 -0.630046)
(3.30201 2.54009e-23 -0.606965)
(3.17594 0 -0.584339)
(3.05354 2.1635e-20 -0.562324)
(2.93378 2.25106e-20 -0.540674)
(2.81741 -2.32489e-20 -0.519609)
(2.70315 2.38939e-20 -0.498818)
(2.5921 4.89135e-20 -0.478598)
(2.4826 4.98005e-20 -0.458557)
(2.37621 -5.04854e-20 -0.439087)
(2.27082 5.10581e-20 -0.419695)
(2.16851 0 -0.40089)
(2.06665 0 -0.382056)
(1.96792 5.17959e-20 -0.36384)
(1.86907 0 -0.345483)
(1.77348 0 -0.32779)
(1.67721 -1.02922e-19 -0.309844)
(1.58439 0 -0.292618)
(1.49034 -1.01452e-19 -0.27503)
(1.40002 -2.00928e-19 -0.258231)
(1.30794 0 -0.240967)
(1.21998 -9.80575e-20 -0.224581)
(1.12967 0 -0.207618)
(1.04423 0 -0.19168)
(0.955372 -1.86863e-19 -0.174981)
(0.873207 1.83499e-19 -0.159626)
(0.785019 3.94213e-23 -0.143073)
(0.707927 0 -0.128633)
(0.618658 0 -0.111921)
(0.550094 0 -0.099046)
(0.456516 -1.63602e-19 -0.0815716)
(0.401796 1.59512e-19 -0.0713008)
(0.29963 0 -0.0521952)
(0.264389 6.02785e-19 -0.0457015)
(0.151127 2.91598e-19 -0.0243446)
(0.13643 -5.6641e-19 -0.0220342)
(0.0180504 -2.73138e-19 0.000841968)
(0.0107797 -5.29182e-19 0.000789722)
(-0.0857696 0 0.0210025)
(-0.131224 0 0.0264147)
(-0.135399 2.37181e-19 0.0302447)
(-0.292543 4.5202e-19 0.0573792)
(-0.162475 -4.39903e-19 0.033173)
(-0.414887 0 0.0829843)
(-0.237641 0 0.0442812)
(-0.439706 3.80312e-19 0.0880448)
(-0.338437 3.68954e-19 0.0641374)
(-0.46393 0 0.0932189)
(-0.467581 -3.34812e-19 0.0883552)
(-0.456884 3.17167e-19 0.090251)
(-0.573157 0 0.111166)
(-0.524421 0 0.103541)
(-0.694374 0 0.130126)
(-0.430299 0 0.0893398)
(-1.01485 0 0.199298)
(-0.5171 -4.79159e-19 0.091731)
(-0.877266 0 0.179027)
(-0.876846 0 0.165333)
(-0.814447 0 0.162555)
(-1.16666 7.5643e-19 0.226287)
(-0.874809 7.37973e-19 0.158951)
(-0.922495 0 0.191257)
(-1.47622 -6.496e-19 0.278073)
(-0.603945 0 0.101056)
(-1.05344 -5.94088e-19 0.215986)
(-1.1297 0 0.212848)
(-0.891103 -5.49926e-19 0.152289)
(-0.283787 0 0.0400163)
(32.5903 -4.97273e-21 1.49063)
(33.1734 -6.17518e-21 1.62987)
(33.6998 7.33478e-21 1.43847)
(33.9251 8.26723e-21 0.977047)
(33.7323 0 0.38465)
(33.1332 -9.91218e-21 -0.231713)
(32.2012 0 -0.806219)
(31.0273 1.74132e-20 -1.30184)
(29.7002 1.66491e-20 -1.70314)
(28.2963 3.21126e-20 -2.01055)
(26.875 -1.47744e-20 -2.23379)
(25.4785 1.37863e-20 -2.38636)
(24.134 0 -2.4822)
(22.8571 0 -2.53393)
(21.6551 1.112e-20 -2.55218)
(20.5298 -1.14541e-22 -2.54551)
(19.4795 1.7603e-22 -2.52056)
(18.5007 1.35866e-22 -2.4824)
(17.5889 0 -2.43488)
(16.7393 0 -2.38089)
(15.9468 0 -2.32257)
(15.2069 2.41207e-20 -2.26153)
(14.5151 1.09719e-20 -2.19898)
(13.8673 0 -2.13581)
(13.2597 0 -2.07267)
(12.6889 1.64125e-20 -2.01005)
(12.1519 0 -1.94831)
(11.6459 0 -1.88768)
(11.1684 0 -1.82836)
(10.717 0 -1.77046)
(10.2897 -6.38963e-24 -1.71405)
(9.88471 0 -1.65917)
(9.50026 -1.60791e-24 -1.60585)
(9.13485 1.29559e-20 -1.55408)
(8.78707 2.62113e-24 -1.50384)
(8.45567 0 -1.45511)
(8.13947 0 -1.40785)
(7.83743 0 -1.36203)
(7.54857 0 -1.31758)
(7.27202 0 -1.27448)
(7.00692 0 -1.23267)
(6.75258 0 -1.19211)
(6.50823 -2.73028e-21 -1.15272)
(6.27331 -1.07072e-21 -1.1145)
(6.04712 0 -1.07734)
(5.82924 1.83551e-21 -1.04126)
(5.61899 0 -1.00615)
(5.4161 0 -0.972029)
(5.21986 -1.06045e-20 -0.938772)
(5.03016 0 -0.90643)
(4.84624 1.42089e-20 -0.87485)
(4.66818 0 -0.844121)
(4.4951 3.41831e-20 -0.814051)
(4.32731 2.4618e-23 -0.78478)
(4.16374 0 -0.756062)
(4.005 0 -0.728103)
(3.84976 0 -0.700589)
(3.69899 4.37438e-20 -0.673806)
(3.55103 -4.49549e-20 -0.647356)
(3.40728 -4.59595e-20 -0.621625)
(3.26564 -4.67936e-20 -0.596107)
(3.12805 9.49651e-20 -0.571314)
(2.99185 4.79746e-20 -0.546607)
(2.85967 0 -0.522648)
(2.72816 0 -0.498639)
(2.60071 -2.43529e-23 -0.47542)
(2.47319 0 -0.452011)
(2.34989 0 -0.42945)
(2.22579 -9.66792e-20 -0.406554)
(2.10614 0 -0.384582)
(1.98497 0 -0.362133)
(1.86859 1.88761e-19 -0.340699)
(1.75001 -9.32651e-20 -0.318653)
(1.63669 0 -0.297735)
(1.52039 0 -0.276066)
(1.4103 0 -0.2557)
(1.29586 1.75493e-19 -0.234365)
(1.18988 0 -0.214709)
(1.07632 3.37464e-19 -0.193573)
(0.976638 -1.65199e-19 -0.175022)
(0.861772 0 -0.153722)
(0.772655 0 -0.137065)
(0.652458 1.53521e-19 -0.114864)
(0.580536 -2.56838e-23 -0.101396)
(0.449604 1.45234e-19 -0.0771889)
(0.402062 -2.82683e-19 -0.0684412)
(0.257015 2.734e-19 -0.04133)
(0.23567 2.65552e-19 -0.0380141)
(0.0833013 2.56092e-19 -0.00865674)
(0.0729666 3.10451e-23 -0.00885938)
(-0.0546624 0 0.0180981)
(-0.10832 -2.30077e-19 0.0231843)
(-0.12632 0 0.0315113)
(-0.314082 0 0.0623993)
(-0.166612 4.12107e-19 0.035798)
(-0.475565 0 0.0964619)
(-0.258954 0 0.0482881)
(-0.518713 0 0.105374)
(-0.387231 -3.45457e-19 0.0734426)
(-0.554781 0 0.113058)
(-0.547964 -3.1336e-19 0.103295)
(-0.551401 0 0.110104)
(-0.68675 0 0.133729)
(-0.634372 0 0.126261)
(-0.834262 0 0.155632)
(-0.538606 0 0.114163)
(-1.22419 -4.4992e-19 0.2412)
(-0.624435 -4.48094e-19 0.109169)
(-1.08617 4.08996e-19 0.224611)
(-1.04726 0 0.196386)
(-1.00548 0 0.202764)
(-1.3973 -1.4143e-18 0.271231)
(-1.05493 0 0.189487)
(-1.13384 6.47866e-19 0.239106)
(-1.74649 0 0.325904)
(-0.714696 6.12731e-19 0.115698)
(-1.28901 5.55165e-19 0.267985)
(-1.30243 0 0.242887)
(-1.03872 -5.13676e-19 0.170007)
(-0.275099 0 0.0302428)
(32.6445 4.68296e-21 1.03887)
(33.0554 1.13832e-20 1.12552)
(33.5013 -6.90897e-21 1.04214)
(33.8662 -7.82572e-22 0.778401)
(34.0393 7.48559e-21 0.38774)
(33.9645 0 -0.0679027)
(33.634 0 -0.539414)
(33.0678 -1.6397e-20 -0.991056)
(32.3014 -3.04516e-20 -1.3992)
(31.3772 -7.08993e-22 -1.75079)
(30.3388 1.39108e-20 -2.04135)
(29.2268 -1.29804e-20 -2.2722)
(28.0761 1.17367e-20 -2.4482)
(26.9151 0 -2.57593)
(25.7652 0 -2.66257)
(24.6421 -9.5272e-21 -2.71513)
(23.5561 3.48563e-20 -2.74)
(22.5138 3.20742e-20 -2.74275)
(21.5186 0 -2.72811)
(20.5718 0 -2.69996)
(19.6733 0 -2.66146)
(18.822 -6.72683e-23 -2.61516)
(18.0159 -2.06101e-20 -2.56309)
(17.2531 9.35825e-21 -2.50685)
(16.5311 1.70012e-20 -2.44773)
(15.8476 -3.08584e-20 -2.38671)
(15.2002 1.39186e-20 -2.32458)
(14.5866 1.25372e-20 -2.26197)
(14.0046 1.12535e-20 -2.19935)
(13.4521 0 -2.13708)
(12.9272 -8.96679e-21 -2.07546)
(12.428 7.92857e-21 -2.01469)
(11.9528 -6.98244e-21 -1.95494)
(11.5 -1.21913e-20 -1.89633)
(11.0681 -2.1121e-20 -1.83894)
(10.6558 0 -1.78282)
(10.2618 0 -1.72801)
(9.88496 -6.36524e-21 -1.67452)
(9.52412 0 -1.62235)
(9.17832 4.08039e-21 -1.57151)
(8.84657 3.0716e-21 -1.52195)
(8.52806 0 -1.47369)
(8.22189 5.15434e-21 -1.42665)
(7.92741 1.00761e-21 -1.38085)
(7.64378 0 -1.3362)
(7.3705 -1.72714e-21 -1.29272)
(7.10674 -2.90172e-21 -1.2503)
(6.85219 0 -1.20899)
(6.60599 9.94756e-21 -1.16864)
(6.368 -5.85523e-21 -1.12934)
(6.13729 -1.3312e-20 -1.09089)
(5.91396 0 -1.05343)
(5.69691 -2.49015e-23 -1.01672)
(5.48654 3.43929e-20 -0.98095)
(5.28153 0 -0.945812)
(5.08262 0 -0.911572)
(4.88818 -1.98639e-20 -0.877843)
(4.69939 -2.05543e-20 -0.84499)
(4.51419 4.22264e-20 -0.812517)
(4.33432 4.3203e-20 -0.780912)
(4.15717 4.39833e-20 -0.749546)
(3.98514 -4.46122e-20 -0.719061)
(3.81494 -9.01413e-20 -0.688661)
(3.64981 0 -0.659177)
(3.48558 0 -0.629612)
(3.32648 -9.1457e-20 -0.60102)
(3.16736 0 -0.572172)
(3.01354 0 -0.544374)
(2.85878 9.08027e-20 -0.51614)
(2.7096 0 -0.489054)
(2.55856 -8.94385e-20 -0.461354)
(2.41351 -3.24116e-23 -0.434918)
(2.26573 8.75582e-20 -0.407697)
(2.12452 0 -0.381882)
(1.97957 0 -0.355108)
(1.84235 0 -0.329951)
(1.6997 1.64591e-19 -0.30358)
(1.56746 0 -0.279254)
(1.42591 -1.58279e-19 -0.253139)
(1.30124 3.09892e-19 -0.230097)
(1.15813 0 -0.203822)
(1.0461 0 -0.18299)
(0.896593 0 -0.155689)
(0.805203 -2.54149e-23 -0.138623)
(0.642705 -1.36153e-19 -0.108939)
(0.580791 -2.64893e-19 -0.0975646)
(0.400927 -2.56242e-19 -0.0642689)
(0.371283 2.48786e-19 -0.0596965)
(0.181432 0 -0.0232389)
(0.167206 2.32349e-19 -0.023662)
(0.00408443 0 0.0110518)
(-0.0570128 2.15505e-19 0.0151504)
(-0.0949717 0 0.0296681)
(-0.310882 0 0.0630903)
(-0.152522 0 0.0358179)
(-0.516466 -3.63074e-19 0.106688)
(-0.263184 -3.54567e-19 0.0494368)
(-0.584479 0 0.120878)
(-0.420181 3.23259e-19 0.079713)
(-0.636175 -3.04205e-19 0.131833)
(-0.613454 2.93203e-19 0.115307)
(-0.639756 -2.77698e-19 0.129449)
(-0.788415 0 0.154259)
(-0.738303 0 0.148315)
(-0.963893 0 0.179084)
(-0.647285 0 0.14021)
(-1.41945 4.20715e-19 0.280546)
(-0.728488 2.93632e-23 0.12565)
(-1.2923 -7.64753e-19 0.270893)
(-1.20356 0 0.22417)
(-1.19525 0 0.243687)
(-1.60862 6.60905e-19 0.312294)
(-1.22739 0 0.217933)
(-1.33647 -6.05432e-19 0.286755)
(-1.98831 0 0.366461)
(-0.814843 -1.14498e-18 0.127345)
(-1.51344 0 0.318937)
(-1.43065 0 0.262732)
(-1.16303 4.79854e-19 0.180325)
(-0.228746 0 0.0107491)
(32.6687 0 0.685936)
(32.97 -5.23715e-21 0.728836)
(33.3067 0 0.678929)
(33.637 -6.59018e-21 0.515465)
(33.8976 -1.34355e-20 0.253284)
(34.0378 0 -0.0758889)
(34.0289 6.70256e-21 -0.44064)
(33.8596 0 -0.814875)
(33.5306 9.01095e-22 -1.1784)
(33.0512 -2.58126e-20 -1.51672)
(32.4375 0 -1.82055)
(31.7098 0 -2.08496)
(30.8904 -1.1039e-20 -2.30838)
(30.0016 0 -2.49152)
(29.0645 0 -2.6367)
(28.0979 0 -2.74716)
(27.1182 -1.62825e-20 -2.8267)
(26.1386 -1.49985e-20 -2.87928)
(25.1698 -1.36066e-20 -2.90877)
(24.2197 0 -2.91881)
(23.2942 0 -2.9127)
(22.3973 -1.05958e-20 -2.89332)
(21.5315 9.66747e-21 -2.86321)
(20.6983 -8.80169e-21 -2.8245)
(19.8982 -1.599e-20 -2.77901)
(19.1312 2.89067e-20 -2.72824)
(18.3967 -5.42077e-23 -2.67345)
(17.6939 -1.17912e-20 -2.61566)
(17.0217 -1.05838e-20 -2.55574)
(16.3789 0 -2.49437)
(15.7643 0 -2.43212)
(15.1765 -7.45628e-21 -2.36946)
(14.6142 0 -2.30674)
(14.0761 1.14645e-20 -2.24427)
(13.5609 9.92952e-21 -2.18228)
(13.0674 -8.50444e-21 -2.12096)
(12.5944 0 -2.06046)
(12.1408 5.98509e-21 -2.00089)
(11.7055 4.86921e-21 -1.94233)
(11.2875 3.70209e-24 -1.88484)
(10.8858 -5.78046e-21 -1.82846)
(10.4996 0 -1.77323)
(10.1278 -2.43e-21 -1.71913)
(9.76979 0 -1.66621)
(9.42463 0 -1.61441)
(9.09181 0 -1.56378)
(8.77036 1.37734e-23 -1.51421)
(8.45996 0 -1.4658)
(8.15959 -4.66763e-21 -1.41838)
(7.86914 1.0992e-20 -1.37207)
(7.58749 1.25095e-20 -1.32667)
(7.3148 0 -1.28235)
(7.04975 -1.50695e-20 -1.23883)
(6.79284 -3.22684e-20 -1.19636)
(6.54248 0 -1.15456)
(6.29958 0 -1.11379)
(6.06216 1.86592e-20 -1.07357)
(5.83168 1.92693e-20 -1.03436)
(5.60562 -1.98213e-20 -0.995548)
(5.38611 -4.05076e-20 -0.957754)
(5.16996 0 -0.920201)
(4.96013 0 -0.883689)
(4.75258 2.85289e-23 -0.84724)
(4.55126 -4.25997e-20 -0.811882)
(4.3511 0 -0.776391)
(4.15725 4.29134e-20 -0.742067)
(3.96341 0 -0.707398)
(3.77609 0 -0.673999)
(3.58764 0 -0.640035)
(3.40604 0 -0.607467)
(3.22219 3.43905e-23 -0.574114)
(3.04567 -3.21197e-23 -0.542304)
(2.86578 -8.2078e-20 -0.509498)
(2.69395 0 -0.47841)
(2.51749 -7.98082e-20 -0.446115)
(2.35045 0 -0.415785)
(2.17672 -1.54337e-19 -0.383955)
(2.01559 1.51433e-19 -0.354572)
(1.84315 -1.48312e-19 -0.32305)
(1.69089 -1.45231e-19 -0.295118)
(1.5166 0 -0.263447)
(1.37911 1.38487e-19 -0.238023)
(1.19727 0 -0.205209)
(1.08394 -1.31436e-19 -0.184116)
(0.886721 -1.27516e-19 -0.148538)
(0.808156 2.48152e-19 -0.134132)
(0.590066 0 -0.0941788)
(0.550264 -4.65991e-19 -0.0880643)
(0.31901 0 -0.0438534)
(0.299915 2.17512e-19 -0.0445263)
(0.0963616 0 -0.000966017)
(0.0285838 2.01701e-19 0.00140188)
(-0.0362109 0 0.0240661)
(-0.277394 3.71032e-19 0.0585854)
(-0.115881 -3.6106e-19 0.0326882)
(-0.532393 3.39765e-19 0.112794)
(-0.24681 3.3177e-19 0.0470535)
(-0.632694 0 0.133869)
(-0.433418 -6.04802e-19 0.0825887)
(-0.704806 5.69105e-19 0.149044)
(-0.660073 0 0.123939)
(-0.71942 2.59714e-19 0.147962)
(-0.8737 0 0.17198)
(-0.833998 0 0.169395)
(-1.07965 -4.46799e-19 0.199935)
(-0.753291 0 0.166992)
(-1.59609 0 0.31647)
(-0.828293 3.91597e-19 0.141158)
(-1.49032 7.14793e-19 0.316849)
(-1.34324 3.46575e-19 0.248344)
(-1.38001 0 0.284657)
(-1.79584 0 0.348546)
(-1.39008 0 0.244026)
(-1.52353 0 0.332807)
(-2.19849 5.29554e-19 0.399364)
(-0.90157 5.34786e-19 0.135626)
(-1.71971 0 0.367168)
(-1.50648 0 0.270972)
(-1.26132 0 0.182574)
(-0.137638 0 -0.0202361)
(32.6674 4.18857e-21 0.397775)
(32.8993 0 0.413389)
(33.1548 4.90624e-21 0.372391)
(33.4195 0 0.258758)
(33.6622 6.00852e-21 0.0730409)
(33.8516 0 -0.170058)
(33.9647 -6.29955e-21 -0.451403)
(33.9866 1.15504e-20 -0.753059)
(33.9079 2.35834e-20 -1.05987)
(33.7241 7.28774e-22 -1.35984)
(33.4347 0 -1.64397)
(33.043 0 -1.90604)
(32.5557 0 -2.1422)
(31.982 0 -2.35037)
(31.3328 0 -2.5298)
(30.6203 0 -2.68076)
(29.8568 1.46706e-20 -2.80426)
(29.0547 -1.35926e-20 -2.90191)
(28.2254 1.27848e-20 -2.97567)
(27.3795 0 -3.02777)
(26.5262 0 -3.06054)
(25.6733 9.75563e-21 -3.0763)
(24.8273 8.92438e-21 -3.0773)
(23.9933 8.14361e-21 -3.06565)
(23.1753 0 -3.04329)
(22.3765 -1.35473e-20 -3.01194)
(21.5989 -2.44226e-20 -2.97315)
(20.844 1.09802e-20 -2.92827)
(20.1128 0 -2.87847)
(19.4057 0 -2.82475)
(18.7228 0 -2.76798)
(18.0639 6.97054e-21 -2.70888)
(17.4286 0 -2.64807)
(16.8165 0 -2.58608)
(16.2269 9.30231e-21 -2.52332)
(15.6589 7.98912e-21 -2.46018)
(15.112 0 -2.39694)
(14.5851 5.61822e-21 -2.33387)
(14.0776 -9.14597e-21 -2.27115)
(13.5886 -3.60703e-21 -2.20896)
(13.1172 2.71695e-21 -2.14742)
(12.6627 0 -2.08665)
(12.2241 0 -2.0267)
(11.801 0 -1.96769)
(11.3922 -3.34677e-22 -1.90958)
(10.9975 0 -1.8525)
(10.6156 2.54821e-21 -1.79636)
(10.2464 3.49155e-21 -1.74129)
(9.88875 0 -1.68714)
(9.5426 -5.15411e-21 -1.63409)
(9.20664 0 -1.5819)
(8.88116 0 -1.53082)
(8.56461 -1.4102e-20 -1.48052)
(8.25766 2.17305e-23 -1.43133)
(7.95838 1.60059e-20 -1.38281)
(7.66798 0 -1.3354)
(7.38403 0 -1.28853)
(7.10837 -1.80841e-20 -1.24278)
(6.83795 0 -1.19742)
(6.57538 3.80111e-20 -1.15321)
(6.3168 0 -1.10921)
(6.06582 0 -1.0664)
(5.81755 7.92962e-20 -1.0236)
(5.5768 7.98999e-20 -0.982073)
(5.33742 4.01183e-20 -0.940322)
(5.10565 0 -0.899945)
(4.87388 0 -0.859098)
(4.64998 4.00895e-20 -0.819759)
(4.42469 7.9797e-20 -0.779687)
(4.20768 0 -0.741284)
(3.98789 7.86473e-20 -0.701882)
(3.77698 -7.7869e-20 -0.664334)
(3.5619 7.69427e-20 -0.625528)
(3.35657 -7.59111e-20 -0.588794)
(3.14551 7.48018e-20 -0.550545)
(2.94583 0 -0.514662)
(2.73791 0 -0.476926)