/*--------------------------------*- C++ -*----------------------------------*\
| =========                 |                                                 |
| \\      /  F ield         | OpenFOAM: The Open Source CFD Toolbox           |
|  \\    /   O peration     | Version:  2412                                  |
|   \\  /    A nd           | Website:  www.openfoam.com                      |
|    \\/     M anipulation  |                                                 |
\*---------------------------------------------------------------------------*/
FoamFile
{
    version     2.0;
    format      ascii;
    arch        "LSB;label=32;scalar=64";
    class       volScalarField;
    location    "0.015";
    object      Co;
}
// * * * * * * * * * * * * * * * * * * * * * * * * * * * * * * * * * * * * * //

dimensions      [0 0 0 0 0 0 0];

internalField   nonuniform List<scalar> 
12600
(
0.121709
0.067603
0.0472322
0.036418
0.0295355
0.0246512
0.0209631
0.0180577
0.0157035
0.0137561
0.0121196
0.0107274
0.00953115
0.00849487
0.00759096
0.00679789
0.00609855
0.00547919
0.00492858
0.00443751
0.00399829
0.00360446
0.00325054
0.00293183
0.00264431
0.00238448
0.00214935
0.0019363
0.00174302
0.00156752
0.00140801
0.00126291
0.00113083
0.00101053
0.000900908
0.000800967
0.000709815
0.00062665
0.000550751
0.000481474
0.000418241
0.000360528
0.000307854
0.000259765
0.000215848
0.000175731
0.000139093
0.000105546
7.48387e-05
4.66872e-05
2.37661e-05
2.54097e-05
4.60402e-05
6.48326e-05
8.19275e-05
9.75106e-05
0.000111795
0.000124888
0.000136926
0.000147994
0.000158109
0.000167376
0.000175802
0.000183525
0.000190557
0.000197052
0.00020295
0.000208377
0.000213435
0.00021802
0.000222303
0.000226249
0.0002298
0.000233057
0.000236009
0.000238649
0.000241132
0.000243423
0.000245522
0.000247529
0.000249359
0.000251071
0.000252686
0.000254159
0.000255593
0.000256926
0.000258184
0.000259386
0.000260524
0.000261628
0.000262648
0.000263672
0.000264647
0.000265598
0.00026656
0.000267412
0.000268122
0.000268853
0.000269641
0.000270448
0.000271284
0.000272127
0.000272978
0.000273855
0.000274747
0.00027565
0.000276583
0.000277511
0.000278476
0.000279388
0.000280411
0.000281287
0.000282444
0.000283439
0.000284407
0.000286088
0.000285811
0.000287524
0.000281987
0.000271095
0.227619
0.161766
0.123698
0.0989623
0.0818162
0.0691208
0.0592946
0.0514317
0.0449866
0.0396057
0.035049
0.0311463
0.0277731
0.0248354
0.0222605
0.0199915
0.0179826
0.0161968
0.0146039
0.0131787
0.0119002
0.0107505
0.00971464
0.00877946
0.00793377
0.00716784
0.00647322
0.00584252
0.00526926
0.00474771
0.00427282
0.00384007
0.00344549
0.0030855
0.00275692
0.0024569
0.00218284
0.00193242
0.00170354
0.00149432
0.00130307
0.00112827
0.000968509
0.000822484
0.000688959
0.000566837
0.000455218
0.000352923
0.000259191
0.000173153
9.43433e-05
8.92751e-05
0.000150405
0.000206579
0.000257784
0.000304549
0.000347532
0.000387047
0.000423404
0.000456914
0.000487537
0.00051562
0.000541195
0.000564697
0.000586115
0.000606003
0.00062401
0.000640681
0.000656295
0.00067036
0.000683639
0.000695831
0.000706752
0.000716855
0.000725977
0.000734151
0.000741958
0.000749126
0.000755704
0.000762065
0.000767795
0.000773214
0.000778327
0.000782965
0.000787561
0.000791774
0.000795778
0.000799613
0.00080324
0.000806769
0.000810001
0.000813297
0.000816406
0.000819444
0.000822539
0.000825198
0.000827418
0.000829821
0.000832405
0.000835002
0.000837684
0.000840357
0.000843038
0.000845811
0.000848596
0.000851412
0.000854296
0.000857186
0.000860073
0.000862979
0.000865861
0.00086884
0.000871843
0.000875313
0.000877744
0.000882976
0.000882078
0.000886906
0.000868996
0.000839624
0.286083
0.226571
0.18335
0.151438
0.127559
0.1091
0.0944207
0.0824624
0.0725328
0.0641603
0.0570134
0.0508512
0.0454942
0.0408049
0.0366763
0.0330231
0.0297767
0.0268812
0.0242902
0.0219653
0.019874
0.0179888
0.016286
0.0147453
0.0133491
0.012082
0.0109307
0.00988338
0.0089298
0.00806077
0.00726818
0.00654481
0.00588422
0.00528065
0.00472894
0.00422445
0.00376298
0.00334075
0.00295433
0.00260062
0.00227684
0.00198054
0.00170942
0.00146137
0.00123428
0.0010264
0.000836295
0.000661974
0.000502121
0.000355227
0.000220771
0.000197747
0.000286934
0.000379842
0.000464702
0.000542325
0.000613892
0.000679891
0.000740626
0.000796772
0.00084801
0.00089505
0.000937926
0.000977412
0.00101344
0.00104706
0.00107739
0.00110565
0.00113225
0.00115602
0.00117873
0.00119949
0.00121795
0.00123519
0.00125067
0.00126455
0.00127805
0.00129036
0.00130165
0.00131273
0.00132254
0.00133193
0.00134078
0.00134874
0.00135679
0.00136404
0.00137097
0.00137762
0.00138388
0.00138999
0.0013955
0.00140123
0.00140656
0.00141175
0.00141709
0.00142148
0.00142508
0.00142921
0.00143367
0.00143804
0.00144254
0.00144694
0.00145131
0.00145583
0.00146029
0.00146477
0.00146929
0.00147382
0.00147809
0.00148271
0.00148652
0.00149162
0.00149483
0.00150128
0.00150294
0.00151197
0.00150882
0.0015149
0.00148203
0.001431
0.316175
0.26695
0.225547
0.191853
0.164793
0.142895
0.124929
0.109974
0.0973561
0.0865867
0.0773034
0.0692343
0.062171
0.0559511
0.0504458
0.0455513
0.0411833
0.0372721
0.0337598
0.0305977
0.0277446
0.0251652
0.0228291
0.0207101
0.0187851
0.0170343
0.01544
0.0139868
0.0126611
0.0114506
0.0103447
0.00933358
0.00840866
0.00756221
0.00678726
0.00607755
0.0054274
0.00483166
0.00428565
0.00378515
0.00332636
0.00290592
0.00252073
0.00216794
0.00184458
0.00154828
0.00127712
0.00102834
0.000800006
0.000589971
0.000397548
0.000345348
0.000452384
0.000581229
0.000699173
0.000807213
0.000907123
0.000999553
0.0010846
0.00116347
0.00123531
0.00130136
0.0013616
0.00141717
0.00146794
0.00151552
0.00155828
0.00159837
0.00163628
0.00166986
0.00170232
0.00173184
0.00175788
0.00178243
0.00180434
0.00182397
0.00184337
0.00186093
0.00187703
0.00189301
0.00190691
0.00192034
0.00193299
0.00194422
0.00195581
0.00196601
0.00197581
0.0019852
0.00199397
0.00200254
0.00201011
0.0020181
0.00202541
0.00203248
0.00203979
0.00204548
0.00204996
0.00205543
0.00206135
0.00206698
0.00207272
0.00207818
0.00208349
0.00208897
0.00209418
0.00209934
0.0021044
0.00210943
0.00211369
0.00211883
0.0021216
0.00212789
0.00212835
0.00213742
0.00213441
0.00214641
0.00213835
0.00214157
0.00209408
0.00201853
0.329155
0.289462
0.252768
0.22055
0.193042
0.169767
0.150035
0.133213
0.118763
0.106255
0.0953523
0.0857873
0.0773487
0.0698672
0.0632056
0.0572516
0.0519125
0.0471109
0.0427818
0.0388699
0.0353281
0.0321158
0.0291978
0.0265434
0.0241257
0.0219211
0.0199089
0.0180706
0.0163899
0.0148521
0.0134444
0.0121548
0.0109731
0.00988961
0.00889596
0.00798443
0.00714803
0.00638042
0.00567578
0.00502887
0.00443496
0.00388991
0.00338986
0.00293133
0.00251049
0.00212447
0.00177091
0.00144629
0.00114807
0.000873469
0.000621671
0.000529126
0.000643541
0.000807282
0.000957517
0.00109531
0.0012231
0.00134169
0.00145077
0.00155225
0.0016445
0.00172943
0.00180692
0.00187849
0.00194397
0.00200555
0.00206072
0.00211268
0.00216201
0.00220536
0.00224765
0.00228596
0.00231946
0.0023513
0.00237953
0.00240478
0.00243009
0.00245281
0.00247357
0.00249441
0.00251217
0.00252948
0.00254572
0.0025599
0.00257481
0.00258761
0.00259991
0.00261164
0.00262245
0.002633
0.00264203
0.00265171
0.00266035
0.00266854
0.00267709
0.00268324
0.00268762
0.00269351
0.00269989
0.00270565
0.00271143
0.00271662
0.00272141
0.00272632
0.00273061
0.00273464
0.0027383
0.00274178
0.00274368
0.00274715
0.00274595
0.0027514
0.00274507
0.00275526
0.00274246
0.00275535
0.00273877
0.00273355
0.0026728
0.00257102
0.331871
0.29982
0.268413
0.239202
0.212971
0.189849
0.169612
0.151929
0.136445
0.122838
0.110831
0.10019
0.0907219
0.0822657
0.0746875
0.0678754
0.0617351
0.0561871
0.0511633
0.0466057
0.042464
0.0386946
0.0352594
0.032125
0.0292619
0.0266441
0.0242485
0.0220546
0.020044
0.0182003
0.0165088
0.0149562
0.0135304
0.0122208
0.0110174
0.00991154
0.00889501
0.00796047
0.00710117
0.00631095
0.00558428
0.00491636
0.00430268
0.00373922
0.00322132
0.00274575
0.00230973
0.00190908
0.00154064
0.00120101
0.000889335
0.000745762
0.000857009
0.00105429
0.00123574
0.00140235
0.00155724
0.00170145
0.00183399
0.00195771
0.00206991
0.00217336
0.00226776
0.00235503
0.00243497
0.00251035
0.00257766
0.0026413
0.00270194
0.00275477
0.00280674
0.00285361
0.00289424
0.00293311
0.00296733
0.00299783
0.00302879
0.00305632
0.00308134
0.00310669
0.00312781
0.00314851
0.00316784
0.00318434
0.003202
0.0032167
0.00323076
0.00324406
0.00325605
0.00326768
0.00327716
0.00328749
0.00329636
0.00330445
0.00331296
0.00331825
0.00332111
0.00332589
0.00333113
0.00333528
0.00333924
0.00334218
0.00334433
0.00334642
0.00334738
0.00334775
0.00334731
0.00334642
0.00334288
0.00334171
0.00333286
0.00333463
0.0033168
0.00332576
0.00329755
0.00330836
0.00327938
0.0032596
0.00318709
0.0030591
0.328422
0.302197
0.275616
0.249855
0.225779
0.20379
0.183969
0.166226
0.150385
0.136244
0.123605
0.112284
0.102119
0.0929692
0.0847139
0.0772483
0.0704827
0.0643395
0.0587519
0.0536616
0.049018
0.0447765
0.0408979
0.0373476
0.0340948
0.0311122
0.0283754
0.0258624
0.0235537
0.0214316
0.0194802
0.0176851
0.0160332
0.0145127
0.0131129
0.0118239
0.0106369
0.00954364
0.0085366
0.00760891
0.00675435
0.0059676
0.00524358
0.00457788
0.00396508
0.00340167
0.00288454
0.00240895
0.0019711
0.00156706
0.00119598
0.000991514
0.00108919
0.00131829
0.0015295
0.00172363
0.00190452
0.00207343
0.00222853
0.00237376
0.00250516
0.00262645
0.00273713
0.00283949
0.00293334
0.00302203
0.00310095
0.00317579
0.00324729
0.00330906
0.00337023
0.00342516
0.00347232
0.00351767
0.0035573
0.0035924
0.00362841
0.00366012
0.00368868
0.00371786
0.00374155
0.00376481
0.00378638
0.00380423
0.00382369
0.00383924
0.00385394
0.00386764
0.00387954
0.00389095
0.00389945
0.00390894
0.00391651
0.00392279
0.00392953
0.00393223
0.00393168
0.00393333
0.00393532
0.0039356
0.00393538
0.00393359
0.0039305
0.00392703
0.00392182
0.00391554
0.00390788
0.00389945
0.00388707
0.00387798
0.00385766
0.00385271
0.00381885
0.00382403
0.00377541
0.00378108
0.00373662
0.00369716
0.00361428
0.0034624
0.321311
0.299452
0.276906
0.254452
0.232828
0.212493
0.193678
0.176453
0.160783
0.146573
0.133703
0.122049
0.111487
0.101903
0.0931953
0.0852716
0.0780509
0.0714616
0.0654407
0.0599325
0.0548877
0.0502629
0.0460192
0.042122
0.0385403
0.0352464
0.0322155
0.0294251
0.026855
0.0244868
0.022304
0.0202914
0.0184353
0.0167232
0.0151437
0.0136865
0.0123418
0.0111011
0.00995603
0.0088993
0.00792416
0.00702484
0.00619586
0.00543249
0.00472868
0.00408075
0.00348532
0.00293719
0.00243197
0.00196525
0.00153628
0.0012622
0.00133627
0.00159502
0.00183414
0.00205409
0.00225941
0.00245171
0.00262804
0.00279367
0.00294311
0.00308123
0.00320721
0.00332373
0.00343059
0.00353174
0.00362144
0.00370663
0.00378821
0.00385807
0.00392759
0.00398977
0.00404257
0.00409352
0.00413771
0.00417648
0.00421662
0.00425157
0.00428262
0.0043146
0.00433976
0.00436443
0.00438708
0.00440498
0.00442493
0.00443995
0.00445382
0.00446642
0.00447661
0.00448617
0.00449192
0.00449874
0.00450314
0.00450561
0.00450848
0.00450659
0.00450053
0.00449674
0.00449307
0.00448703
0.00448006
0.00447092
0.00445986
0.00444805
0.00443381
0.00441799
0.00440017
0.00438127
0.00435705
0.00433723
0.00430232
0.0042882
0.00423498
0.00423448
0.00416228
0.00416072
0.00409951
0.00403773
0.00394612
0.0037751
0.31211
0.29351
0.2742
0.254656
0.235432
0.216937
0.199445
0.183108
0.167981
0.154055
0.141278
0.129579
0.118875
0.109083
0.100123
0.0919176
0.0843985
0.077502
0.0711713
0.0653551
0.0600074
0.0550868
0.050556
0.0463816
0.0425334
0.038984
0.0357088
0.0326853
0.0298934
0.0273145
0.0249317
0.0227297
0.0206944
0.018813
0.0170737
0.0154657
0.0139791
0.0126046
0.0113337
0.0101587
0.00907249
0.00806895
0.0071423
0.00628766
0.00549841
0.00477084
0.00410136
0.0034844
0.00291507
0.00238853
0.00190425
0.0015532
0.00159418
0.00187996
0.00214467
0.00238829
0.00261604
0.00282994
0.00302574
0.00321019
0.00337614
0.00352966
0.00366959
0.00379895
0.00391755
0.00402994
0.00412925
0.00422357
0.00431411
0.00439087
0.00446753
0.00453583
0.00459312
0.00464848
0.0046961
0.00473734
0.00478037
0.00481735
0.00484958
0.00488304
0.00490833
0.00493295
0.00495526
0.00497169
0.00499056
0.00500346
0.00501481
0.00502458
0.00503126
0.00503714
0.00503826
0.0050404
0.00503967
0.00503625
0.00503308
0.00502463
0.005011
0.00499952
0.00498793
0.00497325
0.00495722
0.00493843
0.00491712
0.00489468
0.0048692
0.00484166
0.00481158
0.00478027
0.00474232
0.00471018
0.00465907
0.00463472
0.00456085
0.00455418
0.0044579
0.00444873
0.00437176
0.00428825
0.00419009
0.00400653
0.301826
0.285667
0.268901
0.2518
0.234747
0.218065
0.202009
0.186757
0.17241
0.159014
0.14657
0.135051
0.124412
0.1146
0.105556
0.0972219
0.0895415
0.0824616
0.0759325
0.0699089
0.064349
0.0592145
0.0544709
0.0500864
0.0460322
0.042282
0.0388121
0.0356004
0.0326272
0.029874
0.0273244
0.0249627
0.0227751
0.0207486
0.0188712
0.017132
0.0155208
0.0140284
0.0126458
0.0113652
0.0101791
0.00908143
0.00806611
0.00712815
0.00626055
0.00545961
0.00472166
0.00404082
0.00341179
0.00282939
0.0022934
0.00185954
0.00185861
0.00216839
0.0024559
0.00272057
0.00296829
0.00320153
0.00341459
0.00361585
0.00379635
0.00396346
0.00411559
0.00425612
0.00438483
0.00450688
0.00461432
0.00471622
0.00481422
0.00489644
0.0049787
0.00505171
0.00511209
0.00517042
0.00522014
0.00526246
0.0053069
0.00534451
0.00537643
0.00540983
0.00543377
0.00545677
0.00547719
0.00549056
0.00550666
0.00551581
0.00552293
0.00552815
0.00552956
0.00552999
0.00552473
0.00552035
0.00551272
0.00550159
0.00549052
0.00547387
0.00545109
0.00543016
0.00540891
0.00538398
0.0053573
0.00532744
0.00529454
0.00526023
0.00522245
0.00518231
0.00513927
0.0050951
0.0050432
0.0049988
0.00493184
0.00489788
0.00480446
0.00479268
0.00467442
0.00465907
0.00456918
0.00446721
0.00436515
0.0041761
0.291112
0.276799
0.262017
0.246912
0.231735
0.216721
0.20208
0.187979
0.174534
0.16182
0.149873
0.138699
0.128283
0.118599
0.109609
0.101272
0.0935456
0.0863874
0.0797563
0.0736131
0.0679211
0.0626463
0.0577568
0.0532236
0.0490196
0.0451201
0.0415024
0.0381455
0.0350302
0.0321388
0.0294549
0.0269636
0.0246508
0.0225039
0.020511
0.0186611
0.0169442
0.0153507
0.0138717
0.0124994
0.0112261
0.0100456
0.00895188
0.00793981
0.00700213
0.0061353
0.00533554
0.00459681
0.0039135
0.00328012
0.00269691
0.0021761
0.00212512
0.00245546
0.00276259
0.00304531
0.00331012
0.00356002
0.00378771
0.00400337
0.00419609
0.00437463
0.00453688
0.00468661
0.00482348
0.0049533
0.00506715
0.0051748
0.0052785
0.00536453
0.00545061
0.00552672
0.00558869
0.00564839
0.00569878
0.00574071
0.00578497
0.00582177
0.00585186
0.00588362
0.0059048
0.00592463
0.0059417
0.00595053
0.0059623
0.00596627
0.00596768
0.00596689
0.00596159
0.00595519
0.00594221
0.00592995
0.00591418
0.00589416
0.00587397
0.00584825
0.00581554
0.00578426
0.00575259
0.0057168
0.00567903
0.00563784
0.00559332
0.00554727
0.00549758
0.00544545
0.00539031
0.00533441
0.00527
0.00521499
0.00513428
0.00509274
0.00498269
0.00496791
0.00483153
0.00481248
0.00471321
0.00459737
0.00449382
0.0043054
0.280391
0.26749
0.254257
0.240763
0.227163
0.21362
0.200292
0.18732
0.174815
0.16286
0.151508
0.140788
0.130709
0.121264
0.112433
0.104193
0.0965144
0.0893643
0.0827108
0.0765217
0.0707658
0.0654134
0.0604363
0.055808
0.0515039
0.047501
0.043778
0.0403151
0.037094
0.0340977
0.0313105
0.0287179
0.0263063
0.0240632
0.021977
0.0200369
0.0182329
0.0165555
0.014996
0.0135463
0.012199
0.0109479
0.00978671
0.0087105
0.00771184
0.00678735
0.00593326
0.00514338
0.00441195
0.00373321
0.00310793
0.00252114
0.00241194
0.0027365
0.00305976
0.00335722
0.00363593
0.00389948
0.0041389
0.00436622
0.00456857
0.00475614
0.00492619
0.00508293
0.00522582
0.00536132
0.00547972
0.00559114
0.00569864
0.00578679
0.00587481
0.00595234
0.0060144
0.00607387
0.00612355
0.00616374
0.00620631
0.00624095
0.00626788
0.00629659
0.00631382
0.0063292
0.00634173
0.00634494
0.00635118
0.00634898
0.00634368
0.00633596
0.00632311
0.00630909
0.00628779
0.00626702
0.00624267
0.00621345
0.00618386
0.0061491
0.0061067
0.00606528
0.0060235
0.00597744
0.00592934
0.00587783
0.0058229
0.00576651
0.00570656
0.00564431
0.00557915
0.0055138
0.00543945
0.00537639
0.00528501
0.00523844
0.00511554
0.00509999
0.00494974
0.00492945
0.00482384
0.00469861
0.00459508
0.00441157
0.269923
0.258122
0.246108
0.233908
0.221616
0.209337
0.197184
0.185266
0.173679
0.162502
0.151793
0.141593
0.131925
0.122796
0.114203
0.106136
0.0985766
0.0915028
0.0848908
0.0787154
0.0729513
0.0675731
0.0625566
0.0578784
0.0535162
0.049449
0.0456573
0.0421225
0.0388274
0.035756
0.0328932
0.0302251
0.0277386
0.0254217
0.023263
0.021252
0.0193787
0.0176341
0.0160093
0.0144965
0.0130884
0.0117787
0.0105612
0.00943105
0.0083808
0.00740724
0.00650665
0.00567277
0.00489976
0.00418167
0.0035199
0.00289789
0.00272319
0.00300728
0.00334304
0.00365179
0.00394108
0.00421508
0.00446319
0.00469928
0.00490854
0.00510265
0.00527809
0.00543961
0.00558634
0.00572537
0.00584649
0.00595972
0.00606914
0.00615779
0.00624597
0.00632337
0.00638421
0.00644203
0.00648982
0.00652718
0.0065668
0.00659825
0.00662104
0.00664564
0.00665814
0.00666826
0.00667555
0.00667261
0.00667269
0.00666394
0.00665161
0.00663672
0.00661622
0.00659458
0.00656516
0.00653614
0.00650364
0.00646586
0.00642752
0.00638469
0.00633378
0.00628337
0.00623279
0.00617801
0.00612126
0.00606131
0.00599806
0.00593351
0.00586565
0.00579576
0.00572318
0.00565102
0.00556954
0.00550106
0.00540209
0.00535271
0.00522048
0.00520569
0.00504525
0.00502539
0.00491536
0.00478429
0.00468116
0.00450507
0.259857
0.248929
0.237888
0.226733
0.215519
0.204312
0.193187
0.182224
0.171499
0.16108
0.151024
0.141373
0.132157
0.123396
0.115096
0.107257
0.0998713
0.0929262
0.0864055
0.080291
0.0745627
0.0692004
0.0641834
0.0594916
0.0551055
0.0510062
0.0471759
0.0435976
0.0402553
0.0371338
0.034219
0.0314976
0.0289572
0.026586
0.0243732
0.0223084
0.0203822
0.0185854
0.0169095
0.0153468
0.0138901
0.0125332
0.0112701
0.0100959
0.00900318
0.00798896
0.00704962
0.00617882
0.00537081
0.00461943
0.00392677
0.0032747
0.00302956
0.00326437
0.00360908
0.00392573
0.00422234
0.00450363
0.00475745
0.00499947
0.00521299
0.00541124
0.00558974
0.00575392
0.00590245
0.00604302
0.00616518
0.00627847
0.0063881
0.00647591
0.00656275
0.00663871
0.00669735
0.00675245
0.00679752
0.00683137
0.00686722
0.00689485
0.00691304
0.00693294
0.00694049
0.0069451
0.006947
0.006938
0.00693195
0.00691691
0.00689792
0.00687633
0.00684882
0.00682027
0.00678369
0.00674742
0.00670789
0.00666291
0.00661721
0.00656789
0.00651026
0.00645263
0.0063951
0.00633361
0.00627033
0.00620412
0.00613482
0.00606442
0.00599101
0.00591584
0.00583818
0.00576149
0.00567524
0.00560331
0.0054992
0.00544837
0.00530955
0.00529606
0.00512815
0.00510941
0.00499582
0.00486146
0.0047583
0.00459094
0.250259
0.240041
0.229788
0.219486
0.209165
0.198862
0.188626
0.178512
0.168577
0.158874
0.149454
0.140356
0.131613
0.123249
0.115277
0.107705
0.100533
0.0937563
0.0873656
0.0813486
0.0756911
0.0703772
0.0653906
0.0607143
0.0563315
0.0522257
0.0483811
0.044782
0.0414139
0.0382627
0.0353152
0.0325587
0.0299815
0.0275724
0.0253209
0.023217
0.0212515
0.0194155
0.0177009
0.0160998
0.0146056
0.0132118
0.0119126
0.0107032
0.00957643
0.00852931
0.00755842
0.00665734
0.00582051
0.00504159
0.00432332
0.00364616
0.00332706
0.00350546
0.00385587
0.00417731
0.00447826
0.00476392
0.00502076
0.00526609
0.00548149
0.00568173
0.00586123
0.00602627
0.00617485
0.00631526
0.00643711
0.00654909
0.00665757
0.00674356
0.00682796
0.00690156
0.00695743
0.00700919
0.00705112
0.00708126
0.007113
0.00713665
0.00715027
0.00716543
0.00716828
0.0071677
0.00716461
0.0071502
0.00713857
0.00711805
0.00709331
0.00706602
0.00703264
0.00699839
0.00695604
0.00691397
0.00686891
0.00681843
0.00676705
0.00671301
0.00665054
0.00658758
0.00652494
0.00645869
0.00639081
0.00632028
0.00624688
0.00617248
0.00609536
0.00601666
0.00593563
0.00585594
0.0057665
0.00569228
0.00558466
0.00553288
0.00538939
0.00537693
0.00520351
0.00518587
0.00506892
0.00493315
0.00482912
0.00467114
0.241141
0.231515
0.221914
0.212319
0.202743
0.193205
0.183734
0.174367
0.165144
0.156104
0.147288
0.13873
0.130463
0.122509
0.114887
0.107609
0.10068
0.0941016
0.0878707
0.0819805
0.0764216
0.0711826
0.0662511
0.0616134
0.0572557
0.0531639
0.0493239
0.0457221
0.0423452
0.0391803
0.0362152
0.0334381
0.0308378
0.0284038
0.0261259
0.0239947
0.0220011
0.0201366
0.0183932
0.0167635
0.0152407
0.0138187
0.0124916
0.0112546
0.0101011
0.00902781
0.00803165
0.0071061
0.00624591
0.00544454
0.00470532
0.00400754
0.00361258
0.00372946
0.00408283
0.00440646
0.00470923
0.00499678
0.00525437
0.00550081
0.00571611
0.00591666
0.00609549
0.00626
0.00640731
0.00654628
0.00666689
0.00677662
0.00688298
0.00696661
0.00704794
0.00711867
0.00717163
0.00721986
0.00725865
0.00728529
0.00731302
0.00733293
0.00734244
0.00735321
0.007352
0.00734693
0.00733957
0.00732075
0.00730447
0.00727953
0.00725021
0.00721844
0.00718052
0.00714191
0.00709526
0.00704889
0.00699976
0.00694539
0.00688988
0.00683266
0.00676697
0.00670021
0.00663395
0.00656442
0.00649338
0.00641989
0.00634371
0.00626656
0.00618688
0.00610573
0.00602231
0.00594046
0.00584874
0.00577274
0.00566261
0.00560981
0.00546303
0.0054509
0.00527345
0.00525652
0.00513618
0.00500047
0.00489467
0.00474643
0.232486
0.223364
0.214313
0.205312
0.196364
0.187478
0.178668
0.169956
0.161368
0.152934
0.144682
0.136642
0.128841
0.1213
0.114038
0.10707
0.100405
0.0940489
0.0880019
0.0822623
0.0768251
0.0716831
0.0668274
0.0622478
0.0579332
0.053872
0.0500524
0.0464624
0.0430903
0.0399244
0.0369537
0.0341672
0.0315545
0.0291056
0.026811
0.0246615
0.0226486
0.0207639
0.0189997
0.0173489
0.0158048
0.0143614
0.0130129
0.0117546
0.0105801
0.00948619
0.0084699
0.00752468
0.00664563
0.00582609
0.00506974
0.00435511
0.00388406
0.00393642
0.00429068
0.0046145
0.00491718
0.00520466
0.0054613
0.00570718
0.00592091
0.00612054
0.00629753
0.00646057
0.00660578
0.00674249
0.0068613
0.00696829
0.00707201
0.00715308
0.00723116
0.00729886
0.00734911
0.00739399
0.00742989
0.00745352
0.00747766
0.00749429
0.00750038
0.00750736
0.00750287
0.00749419
0.00748341
0.00746122
0.00744125
0.00741297
0.00738022
0.0073451
0.00730384
0.00726204
0.00721233
0.0071629
0.00711084
0.00705381
0.00699533
0.00693603
0.00686821
0.00679872
0.00672981
0.00665794
0.00658463
0.00650897
0.00643077
0.00635153
0.00626992
0.00618686
0.00610157
0.00601794
0.00592444
0.00584679
0.00573483
0.00568066
0.00553169
0.00551903
0.00533882
0.00532207
0.00519828
0.00506386
0.00495546
0.00481715
0.224259
0.215574
0.206996
0.198503
0.190093
0.181766
0.173528
0.16539
0.157369
0.149482
0.141752
0.1342
0.126847
0.119713
0.112814
0.106166
0.0997796
0.0936622
0.0878182
0.0822492
0.0769536
0.0719279
0.0671664
0.0626621
0.0584066
0.0543909
0.0506052
0.0470395
0.0436836
0.0405274
0.0375609
0.0347741
0.0321574
0.0297017
0.0273978
0.0252372
0.0232116
0.0213131
0.0195342
0.0178681
0.0163082
0.0148486
0.0134837
0.0122089
0.011018
0.00990767
0.00887521
0.00791402
0.00701966
0.00618531
0.00541478
0.00468627
0.00414047
0.00412719
0.00448099
0.00480365
0.00510489
0.00539096
0.00564549
0.00588965
0.00610087
0.00629886
0.00647327
0.00663438
0.00677704
0.00691109
0.00702791
0.00713203
0.0072329
0.00731149
0.00738641
0.00745119
0.0074991
0.007541
0.00757444
0.00759564
0.00761672
0.00763059
0.00763398
0.00763778
0.00763077
0.00761927
0.00760582
0.00758117
0.00755833
0.00752756
0.00749228
0.00745468
0.00741098
0.00736682
0.00731492
0.00726329
0.00720903
0.00715015
0.00708944
0.00702868
0.00695937
0.00688777
0.00681674
0.00674306
0.00666793
0.00659051
0.00651067
0.00642968
0.00634646
0.00626175
0.00617486
0.00608962
0.00599463
0.00591531
0.00580205
0.00574611
0.0055959
0.00558186
0.00540001
0.00538291
0.00525565
0.00512356
0.00501187
0.00488354
0.216419
0.208121
0.199957
0.191905
0.18396
0.176118
0.168378
0.160745
0.153226
0.145834
0.138582
0.131484
0.124557
0.117816
0.111277
0.104951
0.0988514
0.0929854
0.0873596
0.0819778
0.0768412
0.0719491
0.0672987
0.0628856
0.0587042
0.0547478
0.0510088
0.047479
0.04415
0.0410131
0.0380594
0.0352803
0.0326671
0.0302111
0.0279041
0.0257381
0.0237052
0.0217978
0.020009
0.018332
0.0167606
0.0152889
0.0139114
0.0126236
0.0114197
0.0102961
0.00925038
0.00827599
0.00736894
0.00652236
0.00573978
0.00499968
0.0043817
0.00430292
0.00465555
0.00497634
0.00527533
0.00555914
0.0058109
0.00605265
0.00626085
0.00645688
0.00662837
0.0067874
0.0069274
0.0070587
0.00717353
0.00727489
0.00737294
0.00744926
0.00752129
0.00758337
0.00762934
0.0076687
0.00770008
0.00771939
0.00773792
0.00774949
0.00775078
0.00775193
0.00774296
0.00772926
0.00771368
0.00768722
0.00766211
0.00762941
0.00759221
0.00755269
0.00750712
0.00746113
0.00740755
0.00735423
0.00729818
0.0072379
0.00717535
0.00711345
0.007043
0.00696964
0.00689677
0.00682153
0.00674483
0.00666587
0.00658459
0.00650203
0.00641736
0.00633115
0.00624283
0.00615606
0.00605982
0.00597878
0.00586467
0.00580658
0.00565596
0.00563977
0.00545729
0.00543933
0.00530866
0.00517975
0.00506421
0.00494582
0.208928
0.200977
0.19318
0.185517
0.17798
0.170562
0.163258
0.15607
0.148999
0.142051
0.135233
0.128556
0.122029
0.115664
0.109473
0.103468
0.0976569
0.0920497
0.0866529
0.0814714
0.0765085
0.0717652
0.0672413
0.0629345
0.0588416
0.0549579
0.0512779
0.0477955
0.0445038
0.0413955
0.0384633
0.0356996
0.0330966
0.0306466
0.0283422
0.0261759
0.0241403
0.0222284
0.0204335
0.0187493
0.0171697
0.015689
0.0143019
0.0130039
0.0117895
0.0106551
0.00959836
0.0086128
0.00769502
0.00683817
0.00604505
0.00529516
0.00460899
0.00446459
0.00481593
0.00513461
0.00543094
0.00571206
0.00596073
0.00619975
0.00640475
0.00659878
0.00676727
0.00692432
0.00706175
0.00719041
0.00730336
0.00740218
0.00749753
0.00757183
0.00764131
0.00770092
0.00774532
0.00778253
0.00781217
0.00783001
0.00784639
0.00785599
0.00785563
0.00785449
0.00784396
0.00782848
0.00781111
0.00778325
0.00775623
0.00772197
0.00768321
0.0076421
0.00759501
0.00754746
0.0074925
0.0074378
0.00738013
0.00731874
0.00725456
0.00719165
0.00712025
0.00704535
0.00697079
0.00689414
0.00681602
0.00673565
0.00665306
0.00656906
0.00648306
0.00639548
0.00630584
0.00621764
0.00612034
0.00603753
0.00592298
0.00586241
0.00571212
0.00569312
0.00551088
0.0054916
0.00535761
0.00523259
0.00511279
0.0050042
0.20175
0.194115
0.186648
0.179332
0.172156
0.165113
0.158196
0.151402
0.14473
0.13818
0.131757
0.125464
0.119309
0.113299
0.107443
0.101749
0.0962252
0.0908793
0.0857179
0.0807463
0.0759684
0.071387
0.067003
0.0628163
0.0588253
0.0550273
0.0514187
0.047995
0.0447511
0.0416811
0.038779
0.0360384
0.0334526
0.031015
0.0287187
0.0265571
0.0245233
0.0226109
0.0208137
0.0191256
0.0175408
0.0160539
0.0146596
0.0133537
0.012131
0.0109878
0.00992171
0.0089266
0.00799959
0.00713402
0.00633151
0.00557332
0.00487487
0.00466458
0.00496321
0.00527987
0.00557337
0.00585165
0.00609715
0.00633335
0.00653522
0.00672739
0.00689298
0.00704824
0.00718329
0.00730951
0.00742073
0.00751727
0.00761011
0.00768262
0.00774983
0.00780722
0.00785032
0.00788571
0.00791384
0.00793051
0.00794502
0.00795289
0.00795117
0.00794804
0.00793617
0.00791919
0.00790024
0.00787124
0.00784254
0.00780694
0.00776683
0.00772433
0.00767592
0.007627
0.00757083
0.00751494
0.00745576
0.00739345
0.00732775
0.00726391
0.00719169
0.0071154
0.00703929
0.00696134
0.00688193
0.00680024
0.00671646
0.00663111
0.00654392
0.00645503
0.00636423
0.00627464
0.00617647
0.00609188
0.00597721
0.00591392
0.00576457
0.00574222
0.00556098
0.00553999
0.00540282
0.00528223
0.00515792
0.00505889
0.194851
0.187506
0.180341
0.173338
0.166486
0.159778
0.153206
0.146764
0.140448
0.134257
0.12819
0.12225
0.116438
0.11076
0.105221
0.0998269
0.0945833
0.0894967
0.0845726
0.0798162
0.0752315
0.0708217
0.066589
0.0625343
0.0586575
0.0549575
0.051432
0.0480783
0.0448925
0.0418705
0.0390075
0.0362981
0.0337369
0.0313182
0.0290359
0.0268841
0.0248569
0.0229482
0.0211523
0.0194636
0.0178766
0.0163861
0.0149872
0.0136756
0.0124466
0.0112962
0.0102224
0.0092191
0.00828419
0.00741123
0.00660025
0.00583501
0.00512856
0.00485605
0.00509818
0.00541294
0.00570356
0.00597903
0.00622142
0.0064549
0.00665383
0.00684435
0.00700725
0.00716094
0.00729384
0.00741786
0.0075275
0.00762202
0.00771253
0.00778347
0.0078487
0.00790406
0.00794606
0.00797989
0.0080067
0.00802238
0.00803527
0.00804159
0.00803871
0.00803379
0.00802077
0.00800247
0.00798209
0.00795212
0.0079219
0.00788511
0.00784382
0.00780007
0.00775051
0.00770034
0.0076431
0.00758616
0.00752555
0.00746245
0.00739534
0.00733058
0.00725765
0.00718015
0.00710259
0.00702345
0.00694284
0.00685996
0.00677507
0.00668849
0.00660019
0.00651012
0.00641824
0.00632737
0.00622848
0.00614211
0.00602761
0.00596143
0.00581353
0.0057874
0.00560775
0.00558474
0.00544457
0.00532883
0.00519984
0.00511
0.1882
0.181126
0.174238
0.167522
0.160965
0.15456
0.148298
0.142172
0.136177
0.130309
0.124566
0.118947
0.113451
0.108081
0.10284
0.0977306
0.0927571
0.0879238
0.0832351
0.0786954
0.0743083
0.070077
0.0660041
0.0620912
0.0583392
0.0547479
0.0513166
0.0480435
0.0449262
0.0419619
0.0391468
0.036477
0.033948
0.031555
0.029293
0.0271567
0.025141
0.0232405
0.0214499
0.0197641
0.018178
0.0166867
0.0152856
0.0139706
0.0127372
0.0115816
0.0105015
0.00949149
0.00854992
0.00767081
0.00685231
0.00608119
0.00536705
0.0050347
0.00522126
0.00553427
0.00582203
0.0060948
0.00633427
0.00656519
0.00676146
0.00695057
0.00711103
0.00726339
0.00739437
0.00751646
0.00762462
0.00771738
0.00780576
0.00787533
0.00793882
0.00799236
0.00803341
0.00806592
0.00809152
0.00810639
0.00811783
0.00812277
0.00811888
0.00811239
0.00809833
0.00807888
0.00805718
0.00802638
0.00799479
0.00795696
0.00791461
0.00786974
0.00781916
0.00776786
0.00770967
0.0076518
0.00758984
0.00752608
0.00745763
0.00739194
0.00731845
0.0072399
0.007161
0.00708074
0.00699906
0.00691506
0.00682917
0.00674146
0.00665217
0.006561
0.00646817
0.00637609
0.0062766
0.0061885
0.00607439
0.00600521
0.00585915
0.00582893
0.00565136
0.00562612
0.00548308
0.00537247
0.00523884
0.00515784
0.181767
0.174948
0.16832