/*--------------------------------*- C++ -*----------------------------------*\
| =========                 |                                                 |
| \\      /  F ield         | OpenFOAM: The Open Source CFD Toolbox           |
|  \\    /   O peration     | Version:  2412                                  |
|   \\  /    A nd           | Website:  www.openfoam.com                      |
|    \\/     M anipulation  |                                                 |
\*---------------------------------------------------------------------------*/
FoamFile
{
    version     2.0;
    format      ascii;
    arch        "LSB;label=32;scalar=64";
    class       surfaceScalarField;
    location    "0.015";
    object      phi_0;
}
// * * * * * * * * * * * * * * * * * * * * * * * * * * * * * * * * * * * * * //

dimensions      [0 3 -1 0 0 0 0];

oriented        oriented;

internalField   nonuniform List<scalar> 
24930
(
-0.00688272
-0.00501973
0.0118863
-0.00500975
-0.001873
-0.00402427
-0.00098552
-0.00340033
-0.000623956
-0.00295688
-0.000443433
-0.00261987
-0.000336973
-0.00235142
-0.000268416
-0.00213071
-0.000220691
-0.0019449
-0.000185797
-0.0017856
-0.000159281
-0.00164702
-0.000138549
-0.00152502
-0.000121964
-0.00141654
-0.00010845
-0.00131925
-9.72707e-05
-0.00123136
-8.78977e-05
-0.00115143
-7.99451e-05
-0.00107833
-7.31246e-05
-0.00101113
-6.722e-05
-0.00094906
-6.20684e-05
-0.000891502
-5.7546e-05
-0.000837925
-5.35567e-05
-0.000787882
-5.00218e-05
-0.000740989
-4.68761e-05
-0.000696914
-4.4064e-05
-0.000655369
-4.15379e-05
-0.000616104
-3.92597e-05
-0.0005789
-3.71981e-05
-0.000543565
-3.53276e-05
-0.00050993
-3.36287e-05
-0.000477844
-3.20817e-05
-0.00044717
-3.06706e-05
-0.000417787
-2.93807e-05
-0.000389586
-2.81998e-05
-0.000362467
-2.7119e-05
-0.000336339
-2.61296e-05
-0.00031112
-2.52245e-05
-0.000286729
-2.43957e-05
-0.000263096
-2.36375e-05
-0.000240155
-2.29431e-05
-0.000217848
-2.23072e-05
-0.000196123
-2.17253e-05
-0.000174925
-2.11972e-05
-0.000154192
-2.07299e-05
-0.000133865
-2.03231e-05
-0.000113887
-1.99747e-05
-9.4211e-05
-1.96709e-05
-7.47305e-05
-1.94779e-05
-5.54068e-05
-1.93229e-05
-3.6159e-05
-1.92474e-05
-1.69719e-05
-1.91871e-05
2.24045e-06
-1.92155e-05
2.14164e-05
-1.91776e-05
4.06481e-05
-1.92328e-05
5.99114e-05
-1.92683e-05
7.92413e-05
-1.93317e-05
9.87199e-05
-1.94774e-05
0.000118479
-1.97663e-05
0.000138581
-2.01031e-05
0.000159112
-2.05306e-05
0.000180121
-2.10185e-05
0.000201598
-2.14758e-05
0.000223621
-2.20207e-05
0.00024616
-2.25477e-05
0.000269391
-2.32233e-05
0.000293282
-2.38927e-05
0.000318069
-2.47935e-05
0.000343658
-2.55807e-05
0.000370233
-2.65819e-05
0.000398021
-2.77854e-05
0.000426834
-2.88103e-05
0.00045703
-3.01993e-05
0.000488594
-3.15588e-05
0.000521421
-3.2832e-05
0.000555789
-3.43631e-05
0.000591709
-3.59207e-05
0.000629221
-3.75109e-05
0.000668803
-3.95781e-05
0.000710456
-4.16556e-05
0.000754295
-4.38344e-05
0.000800732
-4.64396e-05
0.00084966
-4.89236e-05
0.000901404
-5.17449e-05
0.000956213
-5.48072e-05
0.0010141
-5.78895e-05
0.00107567
-6.15695e-05
0.00114091
-6.52306e-05
0.00121015
-6.92411e-05
0.00128376
-7.36084e-05
0.00136198
-7.82277e-05
0.00144531
-8.33218e-05
0.00153379
-8.84796e-05
0.00162831
-9.45237e-05
0.00172898
-0.000100672
0.0018364
-0.000107414
0.00195132
-0.00011492
0.00207336
-0.000122042
0.00220272
-0.000129362
0.00234125
-0.000138529
0.00249001
-0.000148754
0.00264945
-0.000159438
0.00282051
-0.000171062
0.00300388
-0.000183368
0.00320052
-0.000196637
0.0034117
-0.000211187
0.00363846
-0.000226757
0.00388195
-0.000243495
0.00414384
-0.000261885
0.00442503
-0.000281188
0.00472776
-0.000302732
0.00505219
-0.000324426
0.0054031
-0.000350916
0.00577758
-0.000374481
0.0061865
-0.000408921
0.00662303
-0.000436527
0.0070924
-0.000469369
0.00761672
-0.000524323
0.00812701
-0.000510291
0.00873517
-0.000608152
0.00915666
-0.000421491
-0.000255731
-0.01578
-0.00806339
0.0188236
-0.0130773
-0.00457572
-0.0110973
-0.00296553
-0.00965258
-0.00206867
-0.00854965
-0.00154631
-0.00767439
-0.00121218
-0.00695783
-0.000984942
-0.00635675
-0.000821732
-0.00584274
-0.000699778
-0.00539631
-0.000605658
-0.00500365
-0.000531151
-0.00465463
-0.000470932
-0.00434164
-0.00042142
-0.00405881
-0.000380117
-0.00380151
-0.000345227
-0.00356606
-0.000315429
-0.00334948
-0.000289732
-0.00314932
-0.000267385
-0.00296356
-0.000247814
-0.0027905
-0.000230569
-0.00262872
-0.000215297
-0.002477
-0.000201707
-0.0023343
-0.00018956
-0.00219969
-0.000178659
-0.00207238
-0.000168836
-0.00195167
-0.000159955
-0.00183695
-0.000151903
-0.00172768
-0.000144583
-0.00162338
-0.000137916
-0.00152363
-0.000131832
-0.00142802
-0.000126272
-0.00133622
-0.000121182
-0.0012479
-0.000116517
-0.00116279
-0.000112239
-0.00108061
-0.000108315
-0.00100112
-0.000104719
-0.0009241
-0.000101427
-0.000849326
-9.84168e-05
-0.000776608
-9.5663e-05
-0.000705775
-9.31402e-05
-0.000636668
-9.08292e-05
-0.000569124
-8.8736e-05
-0.000502966
-8.68812e-05
-0.000437998
-8.52821e-05
-0.000374062
-8.39038e-05
-0.000310991
-8.27357e-05
-0.000248495
-8.19708e-05
-0.000186401
-8.14158e-05
-0.000124506
-8.11452e-05
-6.27379e-05
-8.09572e-05
-7.15119e-07
-8.12433e-05
6.10158e-05
-8.09157e-05
0.000123125
-8.13458e-05
0.000185374
-8.15218e-05
0.000247933
-8.18997e-05
0.000311019
-8.25631e-05
0.000375035
-8.37902e-05
0.000440254
-8.53349e-05
0.000506848
-8.71215e-05
0.000575068
-8.92486e-05
0.000644842
-9.12572e-05
0.00071639
-9.35583e-05
0.00078972
-9.58898e-05
0.000865249
-9.87499e-05
0.000943031
-0.000101669
0.00102369
-0.00010547
0.00110701
-0.000108884
0.00119358
-0.000113158
0.00128406
-0.000118268
0.00137794
-0.000122678
0.00147631
-0.000128582
0.00157912
-0.000134362
0.00168607
-0.000139787
0.00179805
-0.000146335
0.00191504
-0.000152908
0.00203728
-0.000159752
0.00216623
-0.000168518
0.0023019
-0.000177334
0.00244471
-0.000186636
0.00259596
-0.000197693
0.00275528
-0.000208235
0.0029238
-0.000220265
0.00310223
-0.000233239
0.0032907
-0.00024636
0.00349113
-0.000262001
0.00370343
-0.000277521
0.00392877
-0.000294588
0.00416828
-0.000313115
0.00442281
-0.000332759
0.00469382
-0.000354323
0.00498166
-0.00037632
0.00528899
-0.000401851
0.00561638
-0.000428068
0.00596561
-0.000456637
0.00633912
-0.000488429
0.00673589
-0.000518818
0.00715672
-0.000550187
0.00760717
-0.000588979
0.00809058
-0.000632166
0.00860857
-0.000677426
0.00916416
-0.000726649
0.00975957
-0.000778781
0.0103979
-0.000834931
0.0110832
-0.000896567
0.0118188
-0.000962281
0.0126086
-0.00103331
0.0134572
-0.00111052
0.0143692
-0.00119321
0.0153483
-0.00128176
0.0164023
-0.00137849
0.0175319
-0.00148048
0.0187537
-0.00159633
0.0200598
-0.00171493
0.0214865
-0.00186323
0.0229923
-0.00197517
0.024673
-0.0022051
0.0263739
-0.00221117
0.0282728
-0.00250703
0.0298242
-0.00197289
-0.00142219
-0.0219257
-0.0101953
0.0240575
-0.0193767
-0.00712474
-0.0171566
-0.00518563
-0.0153253
-0.00389994
-0.0138223
-0.00304931
-0.012572
-0.00246248
-0.0115148
-0.00204205
-0.0106069
-0.0017297
-0.00981611
-0.0014905
-0.0091192
-0.00130253
-0.00849873
-0.00115159
-0.00794146
-0.00102817
-0.00743717
-0.000925703
-0.0069778
-0.000839499
-0.00655692
-0.000766144
-0.0061693
-0.000703092
-0.00581064
-0.000648413
-0.0054774
-0.000600628
-0.0051666
-0.00055859
-0.00487575
-0.000521393
-0.0046027
-0.000488314
-0.00434561
-0.000458765
-0.00410289
-0.000432258
-0.00387314
-0.000408391
-0.00365515
-0.000386823
-0.00344782
-0.000367273
-0.0032502
-0.000349505
-0.00306146
-0.000333317
-0.00288083
-0.000318541
-0.00270762
-0.000305031
-0.00254123
-0.000292661
-0.00238108
-0.000281322
-0.00222669
-0.000270915
-0.00207757
-0.000261361
-0.00193331
-0.000252588
-0.00179349
-0.000244541
-0.00165776
-0.000237172
-0.00152574
-0.000230435
-0.00139714
-0.00022427
-0.00127166
-0.000218622
-0.00114904
-0.000213445
-0.00102901
-0.000208762
-0.000911272
-0.000204608
-0.000795495
-0.000201049
-0.000681418
-0.000197973
-0.000568734
-0.000195413
-0.000456981
-0.000193721
-0.000345822
-0.000192574
-0.000234934
-0.000192036
-0.000124156
-0.000191737
-1.30656e-05
-0.000192339
9.81025e-05
-0.000192092
0.000209813
-0.00019306
0.000321845
-0.000193558
0.000434554
-0.00019462
0.00054829
-0.000196299
0.000663747
-0.000199255
0.000781479
-0.000203081
0.000901697
-0.000207337
0.00102494
-0.000212505
0.00115103
-0.000217358
0.00128036
-0.000222875
0.00141301
-0.000228553
0.00154961
-0.000235344
0.00169038
-0.000242437
0.00183634
-0.00025144
0.00198714
-0.000259672
0.00214387
-0.000269892
0.00230763
-0.000282031
0.00247758
-0.000292619
0.00265565
-0.00030666
0.00284173
-0.000320433
0.00303531
-0.000333366
0.00323797
-0.00034899
0.00344965
-0.000364589
0.00367085
-0.000380957
0.00390413
-0.000401789
0.00414952
-0.000422725
0.00440778
-0.000444889
0.00468123
-0.000471149
0.00496919
-0.000496181
0.00527373
-0.000524808
0.00559607
-0.000555582
0.00593648
-0.000586767
0.00629838
-0.000623903
0.00668157
-0.000660703
0.00708821
-0.000701226
0.00752026
-0.000745158
0.00797924
-0.000791751
0.00846774
-0.000842811
0.00898645
-0.000895036
0.00953995
-0.00095535
0.0101295
-0.0010176
0.010758
-0.00108512
0.0114298
-0.00116028
0.0121436
-0.00123255
0.0129005
-0.00130718
0.0137102
-0.00139865
0.0145784
-0.00150032
0.015508
-0.00160702
0.0165043
-0.00172301
0.0175713
-0.00184581
0.0187143
-0.00197791
0.0199406
-0.00212288
0.0212554
-0.00227707
0.0226661
-0.00244398
0.0241801
-0.00262447
0.0258061
-0.00281931
0.0275481
-0.00302372
0.0294252
-0.00325555
0.0314268
-0.00348208
0.0336024
-0.00377192
0.0359014
-0.00401393
0.0384391
-0.00440097
0.0410837
-0.00461979
0.0440415
-0.00516286
0.0470786
-0.00524832
0.0503674
-0.00579584
0.0533154
-0.00492083
-0.00376424
-0.0263433
-0.0117073
0.0278552
-0.0242735
-0.0091946
-0.0222062
-0.00725285
-0.0203131
-0.00579302
-0.018644
-0.00471843
-0.0171841
-0.00392235
-0.0159048
-0.00332137
-0.0147761
-0.00285835
-0.0137726
-0.00249401
-0.0128733
-0.00220178
-0.0120616
-0.00196332
-0.011324
-0.00176579
-0.0106497
-0.0016
-0.01003
-0.00145923
-0.00945766
-0.00133849
-0.0089268
-0.00123399
-0.00843244
-0.0011428
-0.00797039
-0.00106268
-0.00753712
-0.000991843
-0.00712961
-0.000928875
-0.00674525
-0.000872638
-0.0063818
-0.000822199
-0.00603725
-0.000776786
-0.00570988
-0.000735755
-0.00539813
-0.000698565
-0.00510063
-0.000664759
-0.00481617
-0.000633955
-0.00454365
-0.000605824
-0.0042821
-0.000580089
-0.00403061
-0.000556512
-0.00378838
-0.000534885
-0.00355467
-0.000515029
-0.00332881
-0.00049678
-0.00311017
-0.000480007
-0.00289817
-0.00046459
-0.00269228
-0.000450441
-0.00249199
-0.000437479
-0.0022968
-0.000425622
-0.0021063
-0.000414772
-0.0019201
-0.000404828
-0.00173783
-0.000395711
-0.00155911
-0.000387471
-0.00138355
-0.000380163
-0.00121065
-0.000373935
-0.00104007
-0.000368548
-0.000871341
-0.000364131
-0.000703835
-0.000361223
-0.00053704
-0.000359369
-0.000370502
-0.000358578
-0.000203962
-0.000358279
-3.68308e-05
-0.000359476
0.000130636
-0.000359567
0.00029905
-0.000361478
0.000468082
-0.000362595
0.000638308
-0.000364858
0.000810203
-0.000368194
0.000984772
-0.000373832
0.0011629
-0.000381225
0.00134482
-0.000389256
0.00153143
-0.000399122
0.0017224
-0.000408339
0.00191833
-0.000418794
0.00211939
-0.000429628
0.00232643
-0.000442375
0.00253988
-0.000455881
0.00276116
-0.000472734
0.00298981
-0.000488318
0.00322747
-0.000507554
0.00347573
-0.000530294
0.00373339
-0.000550267
0.00400329
-0.000576571
0.0042853
-0.000602427
0.00457863
-0.00062671
0.00488568
-0.000656026
0.00520632
-0.000685232
0.00554134
-0.00071597
0.00589449
-0.000754937
0.00626586
-0.000794094
0.00665657
-0.000835591
0.00707009
-0.000884678
0.00750538
-0.000931459
0.00796556
-0.00098499
0.00845243
-0.00104245
0.00896635
-0.00110068
0.00951243
-0.00116999
0.0100904
-0.00123862
0.0107033
-0.00131418
0.0113542
-0.00139606
0.0120453
-0.00148283
0.0127803
-0.00157786
0.0135604
-0.0016751
0.0143921
-0.00178704
0.0152775
-0.00190295
0.0162205
-0.00202814
0.0172278
-0.00216756
0.0182976
-0.0023024
0.0194318
-0.00244137
0.0206435
-0.00261031
0.021941
-0.00279783
0.0233287
-0.00299471
0.0248143
-0.0032086
0.0264033
-0.00343486
0.0281032
-0.0036778
0.0299245
-0.00394417
0.0318743
-0.00422683
0.0339629
-0.00453266
0.0362006
-0.00486216
0.0386002
-0.00521895
0.041165
-0.00558846
0.0439257
-0.00601626
0.0468579
-0.0064143
0.0500481
-0.0069621
0.0533915
-0.00735734
0.0571002
-0.00810962
0.0609228
-0.0084424
0.0652047
-0.00944481
0.0696238
-0.00966739
0.0743195
-0.0104916
0.0788112
-0.00941255
-0.00748594
-0.0297036
-0.0127556
0.0307518
-0.0281338
-0.0107644
-0.0263744
-0.0090122
-0.0246153
-0.00755215
-0.0229549
-0.00637877
-0.0214276
-0.00544967
-0.0200375
-0.00471149
-0.0187751
-0.00412074
-0.017627
-0.00364214
-0.0165792
-0.00324958
-0.015619
-0.00292353
-0.0147352
-0.00264955
-0.0139184
-0.00241685
-0.0131604
-0.00221728
-0.0124543
-0.00204462
-0.0117943
-0.00189405
-0.0111753
-0.0017618
-0.0105931
-0.00164491
-0.0100439
-0.00154101
-0.00952453
-0.00144821
-0.0090322
-0.00136495
-0.00856442
-0.00128996
-0.00811901
-0.00122218
-0.00769404
-0.00116072
-0.00728775
-0.00110484
-0.00689862
-0.00105389
-0.00652523
-0.00100733
-0.00616633
-0.000964713
-0.00582078
-0.000925631
-0.00548754
-0.000889751
-0.00516564
-0.000856775
-0.00485422
-0.000826448
-0.00455246
-0.000798538
-0.00425962
-0.000772854
-0.003975
-0.000749226
-0.00369792
-0.000727527
-0.00342777
-0.000707638
-0.00316396
-0.000689439
-0.00290595
-0.000672778
-0.00265327
-0.000657508
-0.00240547
-0.000643508
-0.00216207
-0.000630866
-0.00192256
-0.000619663
-0.00168632
-0.000610165
-0.00145289
-0.000601959
-0.00122169
-0.000595327
-0.00099189
-0.000591021
-0.000762796
-0.000588462
-0.000533827
-0.00058755
-0.000304618
-0.00058749
-7.4388e-05
-0.000589712
0.000156529
-0.000590493
0.000388977
-0.000593931
0.000622484
-0.000596107
0.000857874
-0.00060026
0.00109574
-0.000606058
0.0013374
-0.000615503
0.00158413
-0.000627974
0.00183617
-0.000641286
0.0020948
-0.000657771
0.00235956
-0.000673105
0.00263126
-0.000690484
0.00291018
-0.00070856
0.00319737
-0.000729565
0.00349353
-0.000752031
0.0038005
-0.000779721
0.00411773
-0.000805535
0.0044474
-0.000837224
0.00479167
-0.000874569
0.00514894
-0.000907532
0.00552305
-0.000950684
0.00591385
-0.000993216
0.00632028
-0.00103315
0.00674556
-0.00108129
0.00718956
-0.00112923
0.00765329
-0.0011797
0.00814184
-0.00124348
0.00865534
-0.00130761
0.0091953
-0.00137554
0.00976644
-0.00145583
0.0103673
-0.00153233
0.0110022
-0.00161983
0.0116734
-0.00171371
0.0123815
-0.00180874
0.0131333
-0.00192181
0.0139284
-0.0020337
0.014771
-0.00215679
0.0156651
-0.00229012
0.0166134
-0.00243121
0.0176213
-0.0025857
0.0186898
-0.00274368
0.0198278
-0.00292502
0.0210382
-0.00311329
0.0223257
-0.00331569
0.0236994
-0.0035412
0.0251576
-0.00376064
0.0267022
-0.00398598
0.0283496
-0.00425766
0.0301105
-0.0045588
0.0319907
-0.00487486
0.034
-0.00521788
0.0361454
-0.0055803
0.0384361
-0.0059685
0.0408854
-0.00639342
0.0435018
-0.00684323
0.0462982
-0.00732907
0.0492867
-0.00785071
0.0524838
-0.00841602
0.0558907
-0.00899535
0.0595498
-0.00967535
0.0634192
-0.0102837
0.0676259
-0.0111688
0.0719992
-0.0117306
0.076862
-0.0129725
0.0818191
-0.0133995
0.0873727
-0.0149984
0.0931132
-0.0154078
0.0991115
-0.0164899
0.105133
-0.0154338
-0.0126756
-0.0324209
-0.0134648
0.0331302
-0.0312648
-0.0119203
-0.0298427
-0.0104343
-0.0283085
-0.00908627
-0.0267667
-0.00792063
-0.0252771
-0.00693926
-0.0238681
-0.00612053
-0.0225494
-0.00543948
-0.0213209
-0.00487073
-0.0201776
-0.0043929
-0.0191128
-0.00398833
-0.0181193
-0.00364303
-0.0171903
-0.00334595
-0.0163192
-0.0030884
-0.0155004
-0.0028635
-0.0147287
-0.00266579
-0.0139996
-0.00249092
-0.0133091
-0.00233539
-0.0126537
-0.00219637
-0.0120303
-0.00207155
-0.0114362
-0.00195905
-0.0108689
-0.00185728
-0.0103261
-0.00176494
-0.00980595
-0.0016809
-0.00930657
-0.00160421
-0.00882637
-0.00153409
-0.00836388
-0.00146982
-0.00791774
-0.00141084
-0.00748674
-0.00135662
-0.00706975
-0.00130674
-0.00666571
-0.00126081
-0.00627366
-0.00121849
-0.00589271
-0.00117949
-0.00552201
-0.00114356
-0.00516076
-0.00111048
-0.00480821
-0.00108009
-0.00446364
-0.00105221
-0.00412639
-0.00102669
-0.00379585
-0.00100333
-0.00347144
-0.000981908
-0.00315267
-0.000962278
-0.00283895
-0.000944577
-0.00252969
-0.000928915
-0.00222413
-0.000915711
-0.00192174
-0.000904336
-0.00162178
-0.000895282
-0.00132325
-0.000889545
-0.00102528
-0.000886433
-0.000727153
-0.000885681
-0.000428403
-0.000886242
-0.000128027
-0.000890094
0.000173524
-0.000892054
0.000477387
-0.000897797
0.000782924
-0.00090165
0.00109123
-0.00090858
0.001403
-0.000917825
0.00171987
-0.00093238
0.00204354
-0.000951666
0.00237422
-0.000971959
0.00271368
-0.000997242
0.00306124
-0.00102068
0.003418
-0.00104723
0.00378432
-0.0010749
0.00416148
-0.00110673
0.00455044
-0.00114098
0.0049535
-0.0011828
0.00537003
-0.00122205
0.00580274
-0.00126994
0.00625444
-0.00132628
0.00672311
-0.00137619
0.00721356
-0.00144115
0.00772576
-0.0015054
0.0082583
-0.00156571
0.00881524
-0.00163823
0.00939651
-0.00171049
0.0100033
-0.00178646
0.010642
-0.00188218
0.0113129
-0.00197856
0.0120179
-0.00208046
0.0127629
-0.00220087
0.0135462
-0.00231563
0.014373
-0.00244665
0.0152466
-0.00258728
0.0161672
-0.00272931
0.0171436
-0.00289826
0.0181753
-0.00306539
0.0192675
-0.00324893
0.020425
-0.00344769
0.0216514
-0.00365761
0.0229532
-0.00388748
0.0243317
-0.00412215
0.0257975
-0.00439078
0.0273545
-0.00467033
0.0290081
-0.00496931
0.0307694
-0.00530246
0.0326376
-0.00562883
0.0346139
-0.00596233
0.0367171
-0.00636083
0.0389602
-0.00680192
0.0413498
-0.00726444
0.0438976
-0.00776565
0.0466117
-0.00829447
0.0495023
-0.00885909
0.0525847
-0.00947577
0.0558682
-0.0101268
0.0593671
-0.010828
0.0630947
-0.0115782
0.0670696
-0.0123909
0.0712896
-0.0132153
0.075808
-0.0141938
0.0805618
-0.0150375
0.0857207
-0.0163277
0.0910385
-0.0170484
0.0969573
-0.0188913
0.102923
-0.0193653
0.109597
-0.0216719
0.116495
-0.0223064
0.123587
-0.0235815
0.130956
-0.0228026
-0.0192772
-0.0347351
-0.0139367
0.035207
-0.0338955
-0.0127599
-0.0327805
-0.0115492
-0.0314951
-0.0103717
-0.0301277
-0.00928804
-0.0287436
-0.00832341
-0.0273836
-0.00748058
-0.026071
-0.00675205
-0.0248174
-0.00612444
-0.0236266
-0.00558367
-0.0224987
-0.00511633
-0.021431
-0.0047107
-0.0204202
-0.00435682
-0.0194622
-0.00404642
-0.0185531
-0.00377267
-0.017689
-0.00352995
-0.0168662
-0.00331366
-0.0160816
-0.00312003
-0.015332
-0.00294594
-0.0146148
-0.0027888
-0.0139273
-0.00264649
-0.0132674
-0.00251718
-0.012633
-0.00239937
-0.0120221
-0.00229176
-0.0114331
-0.00219323
-0.0108643
-0.00210283
-0.0103144
-0.00201976
-0.00978191
-0.00194331
-0.00926565
-0.00187288
-0.00876446
-0.00180793
-0.00827726
-0.00174801
-0.00780303
-0.00169272
-0.00734084
-0.00164169
-0.00688978
-0.00159463
-0.00644901
-0.00155126
-0.00601771
-0.0015114
-0.0055951
-0.00147482
-0.00518046
-0.00144134
-0.00477312
-0.00141067
-0.00437246
-0.00138256
-0.00397791
-0.00135682
-0.00358883
-0.00133366
-0.00320452
-0.00131321
-0.00282413
-0.00129608
-0.00244706
-0.0012814
-0.00207242
-0.00126992
-0.00169906
-0.0012629
-0.00132592
-0.00125957
-0.000952175
-0.00125943
-0.000577254
-0.00126117
-0.000199911
-0.00126744
0.00017926
-0.00127124
0.000561738
-0.00128028
0.000946713
-0.00128663
0.00133556
-0.00129744
0.00172905
-0.00131131
0.00212911
-0.00133245
0.00253793
-0.00136051
0.00295563
-0.00138965
0.00338453
-0.00142615
0.00382372
-0.00145988
0.0042746
-0.00149809
0.00473763
-0.00153794
0.0052143
-0.00158339
0.00570582
-0.00163249
0.006215
-0.001692
0.00674111
-0.00174815
0.00728738
-0.00181621
0.00785733
-0.00189623
0.00844848
-0.00196732
0.00906661
-0.00205929
0.0097119
-0.00215067
0.0103826
-0.00223638
0.0110835
-0.00233912
0.0118147
-0.00244168
0.0125774
-0.00254915
0.0133794
-0.00268418
0.0142212
-0.00282041
0.0151048
-0.00296402
0.0160376
-0.00313372
0.0170175
-0.00329553
0.0180506
-0.00347976
0.0191411
-0.00367771
0.0202888
-0.00387704
0.0215045
-0.00411398
0.0227876
-0.00434841
0.0241438
-0.00460518
0.0255793
-0.00488317
0.0270978
-0.00517611
0.0287072
-0.00549689
0.0304087
-0.00582365
0.0322145
-0.00619655
0.0341296
-0.00658548
0.0361594
-0.00699906
0.0383167
-0.00745976
0.0406022
-0.00791436
0.0430161
-0.00837622
0.045578
-0.00892273
0.0483029
-0.0095268
0.0511977
-0.0101592
0.0542753
-0.0108433
0.0575447
-0.0115638
0.0610159
-0.0123303
0.0647053
-0.0131652
0.0686224
-0.0140438
0.0727815
-0.0149871
0.0771956
-0.0159923
0.081885
-0.0170804
0.086842
-0.0181723
0.0921302
-0.019482
0.0976622
-0.0205695
0.103651
-0.0223168
0.109771
-0.023168
0.116582
-0.0257024
0.123374
-0.0261569
0.130948
-0.0292461
0.138775
-0.0301337
0.146702
-0.0315086
0.155124
-0.0312244
-0.027118
-0.0367939
-0.0142459
0.0371032
-0.0361884
-0.0133653
-0.0353293
-0.0124083
-0.034279
-0.011422
-0.0331036
-0.0104635
-0.0318609
-0.00956622
-0.0305941
-0.00874739
-0.0293337
-0.00801252
-0.0280989
-0.00735927
-0.0269011
-0.00678147
-0.0257463
-0.00627119
-0.0246368
-0.00582025
-0.0235728
-0.00542089
-0.0225531
-0.00506616
-0.0215758
-0.00474994
-0.0206388
-0.004467
-0.0197396
-0.00421287
-0.0188758
-0.00398379
-0.0180452
-0.00377655
-0.0172455
-0.00358849
-0.0164746
-0.00341732
-0.0157307
-0.00326111
-0.0150119
-0.00311819
-0.0143165
-0.00298715
-0.013643
-0.00286677
-0.0129898
-0.00275598
-0.0123557
-0.00265387
-0.0117393
-0.00255966
-0.0111396
-0.00247266
-0.0105552
-0.00239227
-0.00998525
-0.00231797
-0.00942867
-0.0022493
-0.00888451
-0.00218585
-0.00835188
-0.00212727
-0.00782988
-0.00207327
-0.00731768
-0.00202361
-0.00681447
-0.00197804
-0.00631949
-0.00193631
-0.00583205
-0.0018981
-0.0053515
-0.00186311
-0.00487721
-0.00183111
-0.00440848
-0.00180238
-0.00394456
-0.00177712
-0.00348451
-0.00175612
-0.00302767
-0.00173823
-0.00257301
-0.00172456
-0.00211925
-0.00171666
-0.00166519
-0.00171363
-0.00120988
-0.00171474
-0.000752652
-0.0017184
-0.000291996
-0.0017281
0.000171324
-0.00173457
0.000639165
-0.00174812
0.00111056
-0.00175803
0.00158717
-0.00177406
0.00206978
-0.00179393
0.00256061
-0.00182329
0.00306233
-0.00186225
0.00357495
-0.00190226
0.00410137
-0.00195258
0.00464045
-0.00199898
0.00519391
-0.00205153
0.0057623
-0.00210634
0.0063473
-0.0021684
0.00695037
-0.00223554
0.00757481
-0.00231647
0.00821987
-0.00239319
0.00888915
-0.0024855
0.00958697
-0.00259405
0.0103104
-0.00269074
0.0110661
-0.00281498
0.0118545
-0.00293912
0.0126736
-0.00305546
0.0135288
-0.00319433
0.0144205
-0.00333338
0.0153498
-0.00347843
0.0163257
-0.00366003
0.017349
-0.00384379
0.0184218
-0.00403675
0.0195528
-0.00426474
0.0207397
-0.00448238
0.0219891
-0.00472923
0.0233063
-0.00499488
0.0246907
-0.0052614
0.0261545
-0.00557786
0.0276973
-0.00589118
0.0293253
-0.00623318
0.0310455
-0.00660335
0.0328618
-0.00699238
0.0347833
-0.0074184
0.0368108
-0.00785122
0.0389577
-0.00834344
0.0412302
-0.00885799
0.043633
-0.00940181
0.0461802
-0.0100069
0.0488746
-0.0106088
0.0517149
-0.0112165
0.05472
-0.0119279
0.0579062
-0.012713
0.0612805
-0.0135335
0.0648561
-0.0144189
0.0686423
-0.0153501
0.0726485
-0.0163365
0.0768909
-0.0174075
0.0813784
-0.0185313
0.0861246
-0.0197333
0.0911411
-0.0210089
0.0964492
-0.0223885
0.102034
-0.0237574
0.10797
-0.0254178
0.114144
-0.0267431
0.12081
-0.0289834
0.127566
-0.0299235
0.13508
-0.0332168
0.142504
-0.0335809
0.150752
-0.0374943
0.159276
-0.038657
0.167809
-0.0400423
0.176981
-0.0403962
-0.0359804
-0.0386954
-0.0144454
0.038895
-0.0382595
-0.0138011
-0.0376023
-0.0130655
-0.0367564
-0.0122677
-0.0357662
-0.0114537
-0.0346766
-0.0106559
-0.0335268
-0.00989721
-0.0323483
-0.00919105
-0.0311643
-0.00854328
-0.0299911
-0.00795473
-0.0288393
-0.00742302
-0.0277155
-0.00694405
-0.0266235
-0.00651298
-0.0255649
-0.00612482
-0.02454
-0.00577479
-0.0235485
-0.00545849
-0.0225894
-0.00517199
-0.0216614
-0.00491181
-0.020763
-0.00467495
-0.0198927
-0.00445877
-0.019049
-0.00426101
-0.0182303
-0.00407971
-0.0174354
-0.00391317
-0.0166626
-0.00375989
-0.0159108
-0.0036186
-0.0151786
-0.00348817
-0.0144649
-0.00336764
-0.0137684
-0.00325615
-0.0130881
-0.00315297
-0.0124229
-0.00305744
-0.0117719
-0.002969
-0.011134
-0.00288715
-0.0105084
-0.00281144
-0.00989419
-0.00274151
-0.00929045
-0.00267702
-0.00869637
-0.0026177
-0.00811112
-0.00256328
-0.00753397
-0.00251347
-0.00696419
-0.00246788
-0.00640113
-0.00242617
-0.00584411
-0.00238811
-0.00529241
-0.00235407
-0.00474522
-0.00232429
-0.00420154
-0.00229978
-0.00366066
-0.00227909
-0.00312146
-0.00226375
-0.00258254
-0.00225557
-0.00204256
-0.00225361
-0.00150048
-0.00225683
-0.000955546
-0.00226333
-0.000405978
-0.00227768
0.000147289
-0.00228785
0.000706491
-0.00230733
0.00127058
-0.00232213
0.00184143
-0.00234493
0.00241986
-0.00237236
0.00300826
-0.0024117
0.00360984
-0.00246385
0.00422441
-0.00251684
0.00485554
-0.00258372
0.00550181
-0.00264527
0.00616528
-0.00271499
0.00684657
-0.00278765
0.00754756
-0.00286939
0.00826988
-0.00295785
0.00901735
-0.00306395
0.00978923
-0.00316506
0.0105894
-0.00328564
0.0114229
-0.00342758
0.0122865
-0.00355433
0.0131874
-0.00371594
0.0141268
-0.00387849
0.0151021
-0.00403077
0.0161194
-0.00421156
0.0171793
-0.00439329
0.0182827
-0.00458185
0.0194396
-0.00481691
0.0206515
-0.00505566
0.0219199
-0.00530516
0.023255
-0.00559989
0.0246544
-0.00588177
0.0261251
-0.0061999
0.0276732
-0.00654298
0.0292976
-0.00688578
0.0310118
-0.00729211
0.0328155
-0.0076949
0.0347151
-0.00813274
0.0367183
-0.00860649
0.0388288
-0.00910294
0.041057
-0.00964658
0.0434031
-0.0101974
0.0458809
-0.0108212
0.0484979
-0.0114749
0.0512576
-0.0121615
0.0541747
-0.0129241
0.0572549
-0.013689
0.0604949
-0.0144565
0.0639117
-0.0153446
0.0675222
-0.0163234
0.071333
-0.0173444
0.0753573
-0.0184432
0.0796042
-0.019597
0.084082
-0.0208143
0.0888061
-0.0221316
0.0937847
-0.0235099
0.09903
-0.0249786
0.104552
-0.0265308
0.110373
-0.0282092
0.116471
-0.0298559
0.12293
-0.0318765
0.129613
-0.0334264
0.136814
-0.0361842
0.144062
-0.0371717
0.152118
-0.0412726
0.160026
-0.0414888
0.16878
-0.0462485
0.177831
-0.0477075
0.186838
-0.0490495
0.196552
-0.0501106
-0.0456885
-0.0405096
-0.014573
0.0406373
-0.0401936
-0.014117
-0.0396898
-0.0135694
-0.039012
-0.0129455
-0.0381867
-0.012279
-0.0372456
-0.011597
-0.0362204
-0.0109224
-0.0351396
-0.0102718
-0.0340269
-0.00965603
-0.0329007
-0.00908097
-0.0317747
-0.008549
-0.0306588
-0.00805998
-0.0295596
-0.00761218
-0.0284815
-0.00720297
-0.027427
-0.00682929
-0.0263974
-0.00648799
-0.0253934
-0.006176
-0.0244148
-0.00589043
-0.023461
-0.00562865
-0.0225315
-0.00538831
-0.0216252
-0.00516728
-0.0207412
-0.00496371
-0.0198785
-0.00477592
-0.0190359
-0.00460245
-0.0182125
-0.00444201
-0.0174072
-0.00429348
-0.016619
-0.00415585
-0.0158469
-0.00402824
-0.01509
-0.00390991
-0.0143473
-0.00380016
-0.0136178
-0.00369842
-0.0129008
-0.00360415
-0.0121954
-0.0035169
-0.0115006
-0.00343627
-0.0108157
-0.00336192
-0.0101399
-0.00329356
-0.00947228
-0.00323089
-0.00881219
-0.00317356
-0.00815892
-0.00312114
-0.0075118
-0.00307329
-0.00687014
-0.00302976
-0.00623316
-0.00299103
-0.00560006
-0.00295739
-0.00496978
-0.00293004
-0.00434161
-0.00290725
-0.00371432
-0.00289103
-0.00308642
-0.00288347
-0.0024565
-0.00288353
-0.00182342
-0.00288991
-0.00118638
-0.00290037
-0.000543297
-0.00292077
0.000104746
-0.0029359
0.000760259
-0.00296285
0.00142229
-0.00298417
0.00209286
-0.00301552
0.00277273
-0.00305223
0.00346444
-0.00310342
0.00417169
-0.00317112
0.00489407
-0.00323922
0.00563579
-0.00332545
0.00639519
-0.00340468
0.00717467
-0.00349446
0.00797489
-0.00358789
0.00879793
-0.00369244
0.0096455
-0.0038054
0.0105219
-0.00394037
0.0114266
-0.0040697
0.0123633
-0.00422235
0.013338
-0.00440237
0.0143473
-0.00456355
0.0153986
-0.00476729
0.0164939
-0.00497372
0.0176302
-0.00516713
0.0188139
-0.00539526
0.0200464
-0.00562572
0.0213279
-0.00586338
0.0226691
-0.00615806
0.0240721
-0.00645876
0.0255383
-0.00677133
0.0270787
-0.00714026
0.028691
-0.0074941
0.0303822
-0.0078911
0.0321595
-0.00832026
0.0340211
-0.00874733
0.0359812
-0.00925221
0.0380399
-0.00975365
0.0402034
-0.0102962
0.0424799
-0.010883
0.044873
-0.011496
0.0473937
-0.0121673
0.0500419
-0.0128456
0.0528311
-0.0136104
0.0557699
-0.0144138
0.058861
-0.0152526
0.0621184
-0.0161814
0.0655511
-0.0171217
0.0691545
-0.0180598
0.0729421
-0.0191322
0.076931
-0.0203123
0.0811278
-0.0215412
0.0855448
-0.0228602
0.0901915
-0.0242437
0.0950751
-0.0256979
0.10021
-0.0272663
0.105603
-0.0289035
0.111267
-0.0306425
0.11721
-0.0324735
0.123455
-0.0344542
0.129976
-0.0363771
0.136864
-0.0387649
0.143967
-0.0405288
0.151607
-0.0438242
0.159266
-0.0448309
0.167771
-0.0497779
0.176097
-0.049815
0.185291
-0.0554416
0.194802
-0.0572192
0.20427
-0.0585172
0.214463
-0.0603035
-0.0561613
-0.0422892
-0.0146559
0.0423722
-0.0420555
-0.0143507
-0.0416645
-0.0139604
-0.041119
-0.013491
-0.0404327
-0.0129653
-0.0396256
-0.0124041
-0.0387211
-0.011827
-0.0377425
-0.0112504
-0.0367114
-0.0106871
-0.0356462
-0.0101462
-0.0345619
-0.00963331
-0.0334703
-0.00915161
-0.0323802
-0.00870225
-0.0312982
-0.008285
-0.0302287
-0.00789872
-0.0291749
-0.00754175
-0.0281388
-0.00721212
-0.0271213
-0.0069078
-0.0261232
-0.00662675
-0.0251445
-0.00636704
-0.0241849
-0.00612686
-0.023244
-0.00590456
-0.0223213
-0.00569862
-0.0214161
-0.00550767
-0.0205277
-0.00533048
-0.0196552
-0.00516596
-0.0187979
-0.00501313
-0.017955
-0.00487114
-0.0171257
-0.00473922
-0.0163092
-0.0046167
-0.0155046
-0.00450298
-0.0147112
-0.00439754
-0.0139282
-0.00429991
-0.0131548
-0.00420971
-0.0123902
-0.00412657
-0.0116336
-0.0040502
-0.0108842
-0.00398025
-0.0101414
-0.00391636
-0.00940446
-0.00385806
-0.00867275
-0.00380499
-0.00794553
-0.00375696
-0.00722204
-0.00371451
-0.00650142
-0.00367799
-0.00578265
-0.00364878
-0.00506498
-0.00362491
-0.00434713
-0.00360887
-0.00362754
-0.00360305
-0.00290477
-0.0036063
-0.00217761
-0.00361707
-0.0014452
-0.00363278
-0.000705167
-0.00366081
4.14829e-05
-0.00368256
0.000796816
-0.00371819
0.0015608
-0.00374816
0.00233529
-0.00379002
0.00312093
-0.00383787
0.00392035
-0.00390284
0.00473767
-0.00398846
0.00557224
-0.00407379
0.00642888
-0.0041821
0.00730568
-0.0042815
0.00820546
-0.00439421