/*--------------------------------*- C++ -*----------------------------------*\
| =========                 |                                                 |
| \\      /  F ield         | OpenFOAM: The Open Source CFD Toolbox           |
|  \\    /   O peration     | Version:  2412                                  |
|   \\  /    A nd           | Website:  www.openfoam.com                      |
|    \\/     M anipulation  |                                                 |
\*---------------------------------------------------------------------------*/
FoamFile
{
    version     2.0;
    format      ascii;
    arch        "LSB;label=32;scalar=64";
    class       surfaceScalarField;
    location    "1.135";
    object      phi;
}
// * * * * * * * * * * * * * * * * * * * * * * * * * * * * * * * * * * * * * //

dimensions      [0 3 -1 0 0 0 0];

oriented        oriented;

internalField   nonuniform List<scalar> 
24930
(
0.0158444
0.0210494
-0.0368937
0.00653277
0.00931161
0.00301541
0.00351736
0.00169484
0.00132056
0.0010948
0.000600043
0.000743632
0.000351157
0.000507009
0.000236616
0.000336981
0.000170024
0.000210545
0.000126434
0.000114706
9.58321e-05
4.01962e-05
7.45026e-05
-1.78636e-05
5.80571e-05
-6.35157e-05
4.56552e-05
-9.94945e-05
3.59829e-05
-0.000127025
2.75255e-05
-0.000148856
2.18175e-05
-0.000165108
1.62567e-05
-0.000177518
1.24383e-05
-0.000186241
8.72495e-06
-0.000192156
5.86313e-06
-0.000195527
3.38893e-06
-0.000196791
1.3936e-06
-0.000196775
-2.06183e-07
-0.000195209
-1.6828e-06
-0.000192241
-2.62609e-06
-0.00018856
-3.29003e-06
-0.00018418
-4.59718e-06
-0.000179141
-5.21003e-06
-0.000173661
-5.46288e-06
-0.000167835
-5.89975e-06
-0.000161795
-6.05974e-06
-0.000155634
-6.11494e-06
-0.000149404
-6.20494e-06
-0.000143167
-6.24484e-06
-0.000137025
-6.14585e-06
-0.000131012
-6.00851e-06
-0.000125157
-5.84859e-06
-0.000119492
-5.66056e-06
-0.000114052
-5.43903e-06
-0.000108854
-5.19892e-06
-0.000103893
-4.96258e-06
-9.91458e-05
-4.74752e-06
-9.46049e-05
-4.54017e-06
-9.02505e-05
-4.35537e-06
-8.60645e-05
-4.1888e-06
-8.2065e-05
-4.00139e-06
-7.82736e-05
-3.78941e-06
-7.47588e-05
-3.51193e-06
-7.16013e-05
-3.15818e-06
-6.88924e-05
-2.7115e-06
-6.673e-05
-2.15832e-06
-6.51866e-05
-1.5307e-06
-6.43117e-05
-8.72386e-07
-6.40707e-05
-3.16257e-07
-6.43627e-05
3.04932e-07
-6.48885e-05
7.78225e-07
-6.52809e-05
3.22671e-07
-6.48277e-05
-5.99985e-07
-6.25011e-05
-2.34383e-06
-5.70652e-05
-5.43522e-06
-4.71037e-05
-9.9625e-06
-3.14111e-05
-1.56926e-05
-9.33894e-06
-2.20751e-05
1.83429e-05
-2.76868e-05
5.00255e-05
-3.16872e-05
8.20235e-05
-3.20043e-05
0.000109999
-2.79843e-05
0.000129213
-1.92246e-05
0.000136617
-7.41614e-06
0.000130451
6.15496e-06
0.000112621
1.78188e-05
8.62896e-05
2.63238e-05
5.71387e-05
2.91435e-05
2.90781e-05
2.80521e-05
1.72722e-07
2.89015e-05
-3.16238e-05
3.1796e-05
-6.99473e-05
3.83247e-05
-0.000113334
4.33861e-05
-0.000159355
4.60191e-05
-0.000194388
3.50301e-05
-0.000208818
1.4429e-05
-0.000197801
-1.10147e-05
-0.000169368
-2.84363e-05
-0.000130128
-3.924e-05
-8.73793e-05
-4.27423e-05
-6.75873e-05
-1.9786e-05
-0.000113396
4.58146e-05
-0.000250118
0.000136732
-0.000507305
0.000257193
-0.000894184
0.000386871
-0.00140654
0.000512343
-0.00192459
0.000518073
-0.00203491
0.000110298
-0.00144882
-0.000586117
0.000126472
-0.00157529
0.000552813
-0.000426315
0.000559132
-6.45455e-06
0.00359001
-0.00303084
0.00416783
-0.000577674
0.00150494
0.00266273
0.000700964
0.000804116
0.000258421
0.000442595
-0.000125255
0.000383578
-0.000422329
0.000297076
0.000258897
-0.000681228
0.0010747
-0.000815786
0.00113551
-6.08772e-05
0.00183824
-0.000702714
0.00213077
-0.000292482
0.00149985
0.000630916
-0.000393342
0.00189321
-0.00286503
0.00247171
-0.00474004
0.00187501
-0.00587203
0.00113197
-0.00627619
0.000404167
-0.00463112
-0.00164505
-0.00131525
-0.00331588
0.00149582
-0.00281107
0.00313712
-0.00164128
-0.000309848
0.0334907
0.0300038
-0.0424451
0.0224935
0.0203088
0.0142349
0.0117759
0.00915567
0.00639977
0.00617282
0.00358288
0.00434079
0.00218318
0.00312352
0.00145387
0.00226081
0.00103273
0.00162249
0.000764745
0.0011358
0.000582516
0.000758153
0.000452146
0.000460828
0.000355383
0.000225019
0.000281462
3.9257e-05
0.000221737
-0.000116298
0.000183079
-0.000240978
0.000146509
-0.000339213
0.000114509
-0.000416945
9.01652e-05
-0.000477153
6.89254e-05
-0.000523169
5.19057e-05
-0.000557121
3.73834e-05
-0.000580772
2.50079e-05
-0.000596214
1.50933e-05
-0.000604646
7.00794e-06
-0.000607088
1.95583e-07
-0.000604806
-5.83075e-06
-0.000598477
-1.11382e-05
-0.00058874
-1.47846e-05
-0.000576353
-1.78302e-05
-0.000561813
-2.04523e-05
-0.000545633
-2.21994e-05
-0.00052827
-2.34338e-05
-0.000510052
-2.44256e-05
-0.00049127
-2.50363e-05
-0.000472311
-2.50873e-05
-0.000453384
-2.4918e-05
-0.000434655
-2.45748e-05
-0.000416295
-2.4025e-05
-0.000398447
-2.32856e-05
-0.000381209
-2.2433e-05
-0.000364603
-2.15693e-05
-0.000348591
-2.07633e-05
-0.00033317
-1.99656e-05
-0.000318296
-1.92306e-05
-0.000303931
-1.85547e-05
-0.000290139
-1.77931e-05
-0.000277027
-1.69033e-05
-0.000264819
-1.57185e-05
-0.000253801
-1.41727e-05
-0.000244291
-1.22147e-05
-0.000236625
-9.81761e-06
-0.000231052
-7.10019e-06
-0.000227714
-4.21789e-06
-0.000226522
-1.50944e-06
-0.00022708
9.44269e-07
-0.000228437
2.1745e-06
-0.000229155
9.55884e-07
-0.000226778
-2.9663e-06
-0.000217873
-1.12338e-05
-0.000198081
-2.52263e-05
-0.000162572
-4.5475e-05
-0.000107217
-7.10544e-05
-2.98622e-05
-9.94408e-05
6.67622e-05
-0.000124326
0.000177312
-0.000142255
0.000289674
-0.000144387
0.00038883
-0.000127163
0.000458772
-8.91903e-05
0.000488027
-3.66959e-05
0.000470118
2.40388e-05
0.00040955
7.83636e-05
0.000316287
0.000119565
0.000207823
0.000137591
9.72456e-05
0.000138619
-1.75618e-05
0.000143701
-0.000141934
0.000156163
-0.000279749
0.000176136
-0.000427544
0.000191176
-0.000576953
0.000195422
-0.00068479
0.000142864
-0.000719496
4.91315e-05
-0.000670327
-6.01825e-05
-0.000565241
-0.000133517
-0.000433576
-0.000170895
-0.000299951
-0.000176358
-0.000252755
-6.69697e-05
-0.000436115
0.000229184
-0.000942092
0.00064271
-0.0018492
0.00116429
-0.00316556
0.00170323
-0.00485823
0.002205
-0.00647114
0.00213093
-0.00670849
0.000347633
-0.00469709
-0.0025975
0.00069045
-0.00696301
0.0022417
-0.00197747
0.00218422
5.09716e-05
0.0116531
-0.0124998
0.0137419
-0.0026663
0.00564938
0.0107551
0.00251655
0.00393698
0.000909276
0.00204986
-0.000499658
0.00179239
-0.00126587
0.00106331
0.00114264
-0.00308978
0.00359934
-0.00327245
0.00388497
-0.000346496
0.00608287
-0.0029006
0.00680484
-0.00101444
0.00382003
0.00361572
-0.00315493
0.00886817
-0.0114221
0.0107388
-0.0171907
0.00764364
-0.0202812
0.00422242
-0.0210558
0.00117877
-0.0157632
-0.00693771
-0.00522872
-0.0138503
0.00450864
-0.0125484
0.0106141
-0.00774671
-0.00175396
0.0432713
0.0322924
-0.0455599
0.0359541
0.027626
0.0273518
0.0203782
0.0199248
0.0138268
0.0144214
0.00908623
0.0105656
0.00603901
0.00785475
0.00416468
0.00589174
0.00299573
0.0044232
0.00223328
0.00329531
0.0017104
0.00241162
0.00133582
0.00170928
0.00105773
0.00114524
0.000845508
0.00068903
0.000677943
0.00032051
0.00055159
2.31963e-05
0.000443828
-0.000223153
0.00036088
-0.000421167
0.000288182
-0.000579503
0.000227257
-0.000705139
0.000177571
-0.000803227
0.000135492
-0.000878073
9.9824e-05
-0.000933328
7.04839e-05
-0.000971941
4.57945e-05
-0.000996556
2.46765e-05
-0.00100951
6.67401e-06
-0.00101283
-7.79672e-06
-0.00100836
-1.89587e-05
-0.000997018
-2.91777e-05
-0.000980154
-3.72927e-05
-0.000958895
-4.34233e-05
-0.000934252
-4.80502e-05
-0.000907008
-5.16695e-05
-0.00087784
-5.42037e-05
-0.000847541
-5.53667e-05
-0.000816615
-5.58311e-05
-0.000785458
-5.573e-05
-0.000754465
-5.50204e-05
-0.000723963
-5.37854e-05
-0.000694188
-5.22058e-05
-0.000665239
-5.05195e-05
-0.000637113
-4.8894e-05
-0.00060984
-4.72418e-05
-0.000583387
-4.56854e-05
-0.000557717
-4.42262e-05
-0.000532967
-4.25434e-05
-0.000509352
-4.0518e-05
-0.000487282
-3.7787e-05
-0.000467275
-3.41764e-05
-0.000449912
-2.95715e-05
-0.000435799
-2.39221e-05
-0.000425383
-1.75097e-05
-0.000418911
-1.06948e-05
-0.000416227
-4.12526e-06
-0.000416558
1.36297e-06
-0.000418302
3.84335e-06
-0.000418633
1.23425e-06
-0.000413251
-8.27624e-06
-0.000395934
-2.85425e-05
-0.000358841
-6.23198e-05
-0.000293446
-0.000110875
-0.000192394
-0.000172114
-5.20389e-05
-0.000239809
0.000123733
-0.000300115
0.000324692
-0.000343234
0.000529805
-0.000349524
0.000712276
-0.000309662
0.000843737
-0.000220679
0.000902423
-9.5411e-05
0.000875566
5.08661e-05
0.000768676
0.000185226
0.000597605
0.000290611
0.000391246
0.000343931
0.000173447
0.000356405
-5.37905e-05
0.000370932
-0.000296969
0.000399337
-0.000553275
0.000432441
-0.000816273
0.000454172
-0.00107201
0.000451153
-0.00124732
0.000318178
-0.00129027
9.20862e-05
-0.00118758
-0.000162876
-0.00099188
-0.000329205
-0.000762311
-0.000400453
-0.000543105
-0.000395554
-0.000489849
-0.000120212
-0.000858738
0.000598083
-0.0018159
0.00159987
-0.00347448
0.00282287
-0.00581334
0.00404208
-0.00873484
0.00512649
-0.0113993
0.00479533
-0.0116121
0.000560426
-0.00804693
-0.00616262
0.00154083
-0.016551
0.00449619
-0.00493275
0.00393253
0.000614515
0.0198519
-0.0284192
0.0241918
-0.00700599
0.0108452
0.0241016
0.00484018
0.00994209
0.00167405
0.00521601
-0.000934724
0.00440104
-0.00207143
0.00220005
0.00232575
-0.007487
0.0064299
-0.00737656
0.00693555
-0.000852147
0.0106035
-0.00656854
0.0113634
-0.00177435
0.00511268
0.00986648
-0.00795977
0.0219406
-0.0224203
0.0251994
-0.0317005
0.0169238
-0.0361197
0.00864162
-0.0367314
0.00179048
-0.0275065
-0.0161625
-0.00971774
-0.0316391
0.00716462
-0.0294308
0.0184777
-0.0190598
-0.00487578
0.0490942
0.0317944
-0.0485962
0.045832
0.0308881
0.039518
0.0266922
0.0321304
0.0212144
0.0252401
0.0159766
0.0195479
0.0117312
0.0151064
0.00860618
0.011694
0.00640813
0.00905685
0.00487038
0.00699213
0.00377511
0.00535339
0.00297455
0.0040374
0.00237372
0.00297072
0.0019122
0.00210007
0.0015486
0.00138809
0.00126355
0.00080289
0.00102904
0.000323284
0.000840504
-6.91431e-05
0.000680606
-0.000392476
0.000550582
-0.000653815
0.000438945
-0.000863563
0.000345258
-0.00102951
0.000265896
-0.00115861
0.000199532
-0.00125637
0.00014342
-0.00132805
9.6218e-05
-0.00137743
5.5896e-05
-0.00140728
2.2439e-05
-0.00142117
-4.8659e-06
-0.001423
-2.7374e-05
-0.00141356
-4.67084e-05
-0.00139501
-6.19528e-05
-0.00136928
-7.37608e-05
-0.00133785
-8.30908e-05
-0.00130199
-9.00612e-05
-0.00126307
-9.42627e-05
-0.00122207
-9.68243e-05
-0.00117974
-9.80635e-05
-0.0011368
-9.7956e-05
-0.00109388
-9.67028e-05
-0.00105144
-9.4649e-05
-0.00100972
-9.22392e-05
-0.000968814
-8.98024e-05
-0.000928841
-8.72178e-05
-0.000889819
-8.47097e-05
-0.000851743
-8.23036e-05
-0.000814852
-7.94351e-05
-0.000779503
-7.58661e-05
-0.000746323
-7.09647e-05
-0.0007161
-6.43964e-05
-0.000689711
-5.59536e-05
-0.000668072
-4.55519e-05
-0.000651859
-3.37149e-05
-0.000641431
-2.11234e-05
-0.000636563
-8.93328e-06
-0.000636072
9.11729e-07
-0.000637542
5.15646e-06
-0.00063673
4.0693e-07
-0.000627125
-1.78222e-05
-0.000599436
-5.62292e-05
-0.000541948
-0.000119809
-0.000442048
-0.000210781
-0.000288895
-0.000325276
-7.71167e-05
-0.000451601
0.000187984
-0.000565235
0.000491366
-0.000646638
0.000802537
-0.000660721
0.00108204
-0.000589194
0.00128766
-0.000426323
0.00138548
-0.000193262
0.00135423
8.20828e-05
0.00119848
0.000340944
0.000938612
0.000550454
0.000614438
0.000668083
0.000261801
0.000709027
-0.000109345
0.00074207
-0.000498404
0.000788391
-0.000891661
0.000825696
-0.0012792
0.00084171
-0.00164323
0.000815184
-0.00188009
0.000555038
-0.00191938
0.000131372
-0.00174818
-0.000334076
-0.00144941
-0.000627963
-0.00112014
-0.000729714
-0.000826713
-0.000688972
-0.000795004
-0.000151908
-0.00140561
0.0012087
-0.00290207
0.00309633
-0.00541258
0.00533337
-0.00885727
0.00748676
-0.0130337
0.00930294
-0.0166489
0.0084104
-0.0166288
0.000540395
-0.011404
-0.0113874
0.00266393
-0.0306191
0.00735745
-0.00962618
0.005539
0.0024329
0.0277099
-0.0505903
0.0354917
-0.0147875
0.0172566
0.0423366
0.00784049
0.0193582
0.00259497
0.0104615
-0.00139825
0.00839413
-0.00280611
0.00360794
0.00380595
-0.0140991
0.00958903
-0.0131596
0.0102856
-0.00154875
0.0153123
-0.0115952
0.0156319
-0.00209398
0.00498517
0.0205132
-0.0151356
0.0420614
-0.0357349
0.0457986
-0.0478058
0.0289947
-0.052806
0.0136418
-0.0526309
0.00161534
-0.0391306
-0.0296628
-0.0142633
-0.0565065
0.00934506
-0.0530391
0.026233
-0.0359478
-0.0102987
0.0529217
0.0306488
-0.0517761
0.0523311
0.0314788
0.0489843
0.0300389
0.043476
0.0267227
0.0369829
0.0224697
0.0305539
0.0181601
0.0248022
0.0143579
0.0199403
0.0112701
0.0159412
0.00886944
0.0126821
0.00703423
0.0100257
0.00563093
0.00785213
0.00454726
0.00606512
0.00369921
0.00458927
0.00302445
0.00336803
0.00248478
0.00235434
0.00204273
0.0015136
0.00168126
0.000815988
0.0013782
0.000239904
0.00112667
-0.000234843
0.000913748
-0.000623959
0.000734357
-0.000938984
0.000580972
-0.00119136
0.000451908
-0.00139023
0.000342117
-0.00154357
0.000249596
-0.00165839
0.000170977
-0.00174121
0.000105378
-0.00179672
5.06002e-05
-0.00182676
2.66701e-06
-0.0018396
-3.38645e-05
-0.00183616
-6.53708e-05
-0.00181927
-9.06436e-05
-0.00179164
-0.000110708
-0.00175541
-0.000126279
-0.00171282
-0.000136846
-0.0016655
-0.000144134
-0.00161476
-0.000148798
-0.00156183
-0.000150884
-0.00150776
-0.000150776
-0.00145334
-0.000149061
-0.0013991
-0.000146484
-0.00134529
-0.000143617
-0.00129219
-0.000140323
-0.00123993
-0.00013697
-0.0011886
-0.000133641
-0.00113856
-0.000129468
-0.00109037
-0.000124056
-0.00104491
-0.000116427
-0.00100327
-0.00010603
-0.000966682
-9.25383e-05
-0.000936402
-7.58221e-05
-0.000913374
-5.6734e-05
-0.000898089
-3.64063e-05
-0.00089022
-1.67773e-05
-0.000888148
-1.19539e-06
-0.000888525
5.46463e-06
-0.000885504
-2.53582e-06
-0.000870179
-3.31112e-05
-0.000829788
-9.66203e-05
-0.000748548
-0.000201053
-0.000609427
-0.000349907
-0.000397818
-0.000536894
-0.000106435
-0.000742999
0.000258059
-0.000929749
0.000675834
-0.00106443
0.00110666
-0.00109157
0.00149767
-0.000980239
0.00179155
-0.000720238
0.00194036
-0.000342107
0.00191176
0.000110657
0.00170681
0.000545861
0.00134802
0.000909211
0.000885089
0.00113099
0.000367326
0.00122677
-0.000181816
0.0012912
-0.000746639
0.00135321
-0.0012959
0.00137495
-0.00181571
0.00136152
-0.00228711
0.00128659
-0.0025768
0.000844723
-0.002599
0.00015358
-0.0023448
-0.000588268
-0.00193357
-0.00103918
-0.00150863
-0.00115464
-0.00116077
-0.00103683
-0.0011887
-0.000123956
-0.00210744
0.00212744
-0.00423692
0.00522581
-0.00769412
0.00879056
-0.0123034
0.0120961
-0.0177057
0.0147052
-0.0221066
0.0128113
-0.0215799
1.37572e-05
-0.0146206
-0.0183467
0.00401058
-0.0492505
0.0107521
-0.0163676
0.00672996
0.00645504
0.0347119
-0.0785724
0.0474915
-0.0275669
0.0250422
0.0647857
0.0117064
0.0326941
0.00376278
0.0184052
-0.00184406
0.0140008
-0.00347041
0.00523433
0.00553262
-0.0231022
0.013098
-0.0207249
0.0139651
-0.00241586
0.0201252
-0.0177553
0.0193278
-0.00129651
0.00321074
0.0366303
-0.0247228
0.0699949
-0.0510777
0.0721535
-0.0648654
0.0427824
-0.0696511
0.0184275
-0.0681027
6.69338e-05
-0.049989
-0.0477764
-0.0183488
-0.0881467
0.0109204
-0.0823082
0.0333301
-0.0583575
-0.0187454
0.0560824
0.0296835
-0.0551171
0.0566563
0.0309048
0.0556133
0.0310819
0.0525329
0.0298031
0.0477586
0.027244
0.0420108
0.0239079
0.0360118
0.0203569
0.0302889
0.016993
0.0251321
0.0140263
0.0206429
0.0115234
0.0168095
0.00946431
0.0135674
0.00778931
0.0108368
0.00642985
0.00853987
0.00532138
0.00660971
0.00441494
0.00498732
0.00366513
0.0036254
0.0030432
0.0024829
0.0025207
0.0015275
0.00208206
0.000731161
0.00171014
7.15712e-05
0.00139394
-0.000473603
0.00112613
-0.000918667
0.000897057
-0.00127828
0.000701709
-0.00156477
0.000536097
-0.00178872
0.00039519
-0.00195941
0.000275982
-0.00208492
0.000176071
-0.00217465
9.23648e-05
-0.00222866
2.01632e-05
-0.0022575
-3.6507e-05
-0.00226485
-8.3293e-05
-0.00225323
-0.000122311
-0.00222648
-0.000153006
-0.00218809
-0.000175222
-0.00214068
-0.000191538
-0.00208635
-0.000203129
-0.00202704
-0.000210191
-0.00196443
-0.000213381
-0.00189985
-0.000213637
-0.00183422
-0.000212119
-0.00176808
-0.000209758
-0.00170198
-0.000206425
-0.00163627
-0.000202691
-0.00157115
-0.000198757
-0.00150722
-0.000193395
-0.00144526
-0.000186021
-0.00138644
-0.00017524
-0.00133224
-0.000160227
-0.00128427
-0.000140509
-0.00124418
-0.0001159
-0.00121322
-8.7678e-05
-0.00119205
-5.75781e-05
-0.00118021
-2.86109e-05
-0.00117563
-5.874e-06
-0.00117385
3.65533e-06
-0.00116746
-8.77489e-06
-0.00114464
-5.59069e-05
-0.00108909
-0.000152164
-0.000980613
-0.000309537
-0.000797508
-0.000533017
-0.000521222
-0.000813189
-0.00014236
-0.00112188
0.000331188
-0.00140332
0.000874956
-0.00160823
0.00143903
-0.00165567
0.0019568
-0.00149805
0.00235478
-0.00111825
0.00256903
-0.000556395
0.00255309
0.000126559
0.00230132
0.000797595
0.00183528
0.00137523
0.00121274
0.00175351
0.000497887
0.0019416
-0.000266027
0.0020551
-0.00103787
0.00212504
-0.00176187
0.00209896
-0.00242028
0.00201992
-0.00299652
0.00186282
-0.0033293
0.00117751
-0.00332198
0.000146251
-0.00297266
-0.00093758
-0.00244351
-0.00156832
-0.00193351
-0.00166464
-0.0015602
-0.00141012
-0.00169521
1.10696e-05
-0.00299646
0.00342871
-0.00585394
0.00808328
-0.0103397
0.0132763
-0.0161408
0.0178972
-0.0226894
0.0212537
-0.027637
0.0177589
-0.0263046
-0.00131865
-0.0175308
-0.0271204
0.00546588
-0.0722474
0.014483
-0.0253846
0.00731997
0.013618
0.0403433
-0.111596
0.0598772
-0.0471005
0.0342946
0.0903682
0.0166472
0.0503416
0.00529739
0.0297551
-0.00220964
0.0215077
-0.00406184
0.00708657
0.00743255
-0.0345966
0.0169515
-0.0302438
0.0179936
-0.00345801
0.0249308
-0.0246925
0.0222381
0.00139622
-0.000535587
0.059404
-0.0367294
0.106189
-0.0678886
0.103313
-0.0820739
0.0569677
-0.0859517
0.0223052
-0.0825896
-0.00329512
-0.0596985
-0.0706676
-0.021711
-0.126134
0.011781
-0.1158
0.0392386
-0.0858151
-0.030952
0.0593552
0.029011
-0.0586827
0.0601446
0.0301153
0.0603069
0.0309196
0.0591566
0.0309534
0.0564348
0.0299659
0.0523139
0.0280287
0.0472245
0.0254463
0.0416623
0.0225552
0.0360587
0.0196299
0.0307238
0.0168583
0.0258401
0.014348
0.0214865
0.012143
0.0176719
0.0102444
0.0143661
0.00862715
0.0115226
0.00725843
0.00908821
0.00609953
0.00701251
0.00511891
0.00524797
0.00428522
0.00375371
0.00357631
0.00249301
0.00297087
0.00143425
0.00245272
0.000550423
0.00200993
-0.000182318
0.00162989
-0.000785593
0.00130504
-0.00127659
0.00102705
-0.00167112
0.000789821
-0.00198305
0.000587835
-0.00222401
0.000416988
-0.00240427
0.000272638
-0.00253701
0.000152977
-0.00262417
5.06757e-05
-0.00267483
-3.26177e-05
-0.00269832
-9.8804e-05
-0.00269605
-0.000155259
-0.00267395
-0.000197304
-0.00263617
-0.000229316
-0.00258597
-0.000253326
-0.00252631
-0.000269847
-0.00245978
-0.000279909
-0.00238847
-0.000284945
-0.00231391
-0.000286684
-0.0022371
-0.000286567
-0.002159
-0.000284527
-0.00208029
-0.00028141
-0.00200142
-0.000277625
-0.00192327
-0.000271548
-0.00184691
-0.000262383
-0.00177389
-0.00024825
-0.00170612
-0.000227996
-0.00164564
-0.000200981
-0.00159458
-0.00016695
-0.00155454
-0.000127712
-0.00152633
-8.5778e-05
-0.00150943
-4.55121e-05
-0.00150121
-1.4127e-05
-0.00149609
-1.46448e-06
-0.00148476
-2.00562e-05
-0.00145256
-8.80922e-05
-0.00137925
-0.000225471
-0.00124006
-0.00044873
-0.00100845
-0.000764633
-0.000661771
-0.00115988
-0.000188309
-0.00159535
0.000403043
-0.00199469
0.00108357
-0.00228878
0.00179408
-0.0023662
0.00245429
-0.00215829
0.00297373
-0.00163773
0.00327067
-0.00085337
0.00328119
0.000116003
0.00298893
0.00108982
0.00241033
0.00195379
0.00160868
0.00255513
0.000664078
0.00288618
-0.000353197
0.00307237
-0.00136449
0.00313632
-0.00228179
0.00301625
-0.00308387
0.002822
-0.00376114
0.0025401
-0.00412728
0.00154365
-0.00407918
9.81638e-05
-0.0036258
-0.00139095
-0.00297853
-0.00221558
-0.00240189
-0.00224126
-0.00204194
-0.00177006
-0.00234224
0.000311389
-0.00410654
0.00519302
-0.00778304
0.0117598
-0.0133571
0.0188504
-0.0203348
0.0248748
-0.027887
0.0288059
-0.0330919
0.0229637
-0.0306395
-0.00377098
-0.0199717
-0.0377882
0.00681748
-0.0990368
0.0181469
-0.0367139
0.00724093
0.0245241
0.0442566
-0.148612
0.072193
-0.0750368
0.0450264
0.117535
0.022887
0.0724811
0.00735982
0.0452822
-0.00241168
0.0312791
-0.00460011
0.00927505
0.00939317
-0.0485899
0.0211391
-0.0419897
0.0223916
-0.00471054
0.0296207
-0.0319216
0.0240716
0.00694534
-0.00624831
0.0897239
-0.0509378
0.150878
-0.0854771
0.137852
-0.0986253
0.0701159
-0.101178
0.0248583
-0.0958146
-0.00865885
-0.0683233
-0.0981589
-0.0244759
-0.169982
0.011784
-0.15206
0.0435675
-0.117599
-0.0475819
0.0629957
0.0285208
-0.0625055
0.0636431
0.0294679
0.0641698
0.0303928
0.0640891
0.0310341
0.0629744
0.0310806
0.0606256
0.0303775
0.0570965
0.0289754
0.0526208
0.0270309
0.0475196
0.024731
0.0421259
0.0222521
0.0367313
0.0197425
0.0315584
0.0173159
0.0267529
0.0150499
0.0223925
0.0129875
0.0185042
0.0111468
0.0150799
0.00952381
0.0120931
0.00810575
0.00950664
0.00687168
0.0072812
0.00580174
0.00537715
0.00487494
0.00375721
0.0040727
0.00238727
0.00337986
0.00123602
0.0027812
0.000275697
0.00226541
-0.000518747
0.00182145
-0.00116946
0.00144054
-0.0016961
0.00111444
-0.00211583
0.000836718
-0.00244399
0.000600829
-0.00269362
0.000402645
-0.00287925
0.000236333
-0.00300985
9.79766e-05
-0.00308933
-1.93093e-05
-0.00313478
-0.000109794
-0.00314723
-0.000184839
-0.00313385
-0.000242684
-0.00309964
-0.000287534
-0.00304908
-0.0003204
-0.00298606
-0.000342933
-0.00291377
-0.000357236
-0.00283463
-0.000365823
-0.00275035
-0.000370846
-0.00266251
-0.000372378
-0.00257227
-0.000371646
-0.00248049
-0.000369407
-0.00238843
-0.000363615
-0.00229754
-0.000353265
-0.00220986
-0.000335934
-0.00212776
-0.000310092
-0.00205382
-0.000274915
-0.00199069
-0.000230068
-0.00194038
-0.000178009
-0.00190393
-0.000122214
-0.00188075
-6.86965e-05
-0.00186755
-2.73244e-05
-0.00185777
-1.11663e-05
-0.00183983
-3.79926e-05
-0.00179607
-0.000131843
-0.00170237
-0.000319169
-0.00152918
-0.000621926
-0.00124502
-0.0010488
-0.000823069
-0.00158184
-0.000249075
-0.00216937
0.000467426
-0.00271121
0.0012941
-0.00311548
0.00216332
-0.00323546
0.00298169
-0.0029767
0.0036414
-0.00229748
0.00404123
-0.00125324
0.00409638
6.08159e-05
0.00377508
0.00141108
0.00308326
0.00264557
0.00208599
0.00355237
0.000879853
0.0040923
-0.000430096
0.0043823
-0.00171384
0.00442006
-0.00284288
0.00414528
-0.00379342
0.00377254
-0.00456819
0.00331487
-0.00495953
0.00193499
-0.00486281
1.4791e-06
-0.00430057
-0.00195319
-0.00354082
-0.00297531
-0.00292411
-0.00285796
-0.00262665
-0.00206751
-0.00315886
0.000843614
-0.00547037
0.00750455
-0.0100463
0.0163357
-0.0167376
0.0255416
-0.0248259
0.0329631
-0.0331836
0.0371636
-0.0383193
0.0280994
-0.0344947
-0.00759563
-0.0218773
-0.0504056
0.00769529
-0.12861
0.021157
-0.0501756
0.00655633
0.0391247
0.0462669
-0.188322
0.0838682
-0.112638
0.0571566
0.144246
0.0306482
0.0989896
0.0101502
0.0657803
-0.00234199
0.0437711
-0.00509924
0.0120323
0.0112883
-0.0649775
0.0256277
-0.056329
0.0271604
-0.00624335
0.034049
-0.0388102
0.0245829
0.0164115
-0.0142649
0.128572
-0.0669977
0.203611
-0.102988
0.173842
-0.113853
0.0809813
-0.115006
0.0260105
-0.107784
-0.0158801
-0.0763991
-0.129544
-0.0272374
-0.219143
0.0107557
-0.190053
0.046132
-0.152975
-0.0690926
0.0669899
0.0281199
-0.066589
0.06747
0.0289878
0.0679779
0.0298849
0.0682883
0.0307237
0.0680818
0.031287
0.0670678
0.0313915
0.0650771
0.0309661
0.0620841
0.0300239
0.0581881
0.028627
0.0535757
0.0268644
0.0484809
0.0248374
0.0431485
0.0226482
0.0378052
0.0203932
0.0326369
0.0181558
0.027779
0.0160046
0.0233154
0.0139875
0.0192867
0.0121344
0.0157011
0.0104573
0.0125458
0.00895703
0.00979507
0.00762569
0.00741654
0.00645127
0.00537555
0.00542085
0.00363693
0.00451985
0.00216699
0.00373536
0.000933977
0.00305444
-9.12828e-05
0.00246579
-0.000935462
0.00195863
-0.0016225
0.00152377
-0.00217393
0.0011523
-0.00260919
0.00083793
-0.00294443
0.000571603
-0.00319589
0.000349443
-0.0033814
0.000166216
-0.00349851
7.32952e-06
-0.00357283
-0.000110514
-0.00360586
-0.000209644
-0.00360542
-0.000287968
-0.00357828
-0.000347543
-0.00353021
-0.000390991
-0.003466
-0.000421453
-0.00338936
-0.000442465
-0.00330303
-0.000457176
-0.00320949
-0.000465921
-0.00311069
-0.000470453
-0.00300802
-0.000472077
-0.0029033
-0.000468339
-0.00279851
-0.000458045
-0.00269625
-0.000438201
-0.00259948
-0.000406851
-0.0025114
-0.000362992
-0.00243526
-0.000306194
-0.00237357
-0.000239689
-0.00232763
-0.000168139
-0.0022968
-9.95193e-05
-0.00227726
-4.68461e-05
-0.00226108
-2.73142e-05
-0.00223471
-6.43564e-05
-0.00217732
-0.000189232
-0.00206073
-0.000435755
-0.00185068
-0.000831982
-0.00151076
-0.00138873
-0.00100993
-0.00208268
-0.000331157
-0.00284816
0.000515907
-0.0035583
0.00149616
-0.00409576
0.00253493
-0.00427426
0.00352674
-0.00396855
0.00434657
-0.00311734
0.00487277
-0.00177948
0.00499572
-6.21827e-05
0.00466297
0.00174379
0.00386366
0.00344484
0.00265939
0.00475661
0.00116278
0.00558888
-0.000478579
0.00602365
-0.00206787
0.00600933
-0.00342761
0.00550502
-0.00453249
0.00487741
-0.0054032
0.00418559
-0.00581468
0.00234647
-0.00566629
-0.00014695
-0.00499527
-0.00262419
-0.00413498
-0.00383559
-0.00351289
-0.00348003
-0.00333619
-0.0022442
-0.00417487
0.00168232
-0.00711651
0.0104462
-0.0126543
0.0218735
-0.0204522
0.0333395
-0.0295318
0.0420427
-0.0384518
0.0460836
-0.0432049
0.0328524
-0.037862
-0.0129385
-0.0233724
-0.0648953
0.0075489
-0.159531
0.0228186
-0.0654452
0.00533773
0.0566057
0.0463843
-0.229369
0.0943976
-0.160651
0.0705132
0.16813
0.0401356
0.129367
0.0139066
0.0920094
-0.00186621
0.0595437
-0.00554945
0.0157156
0.013006
-0.083533
0.0303771
-0.0737
0.032284
-0.00815025
0.0380603
-0.0445865
0.0235129
0.0309589
-0.0246044
0.176689
-0.0844045
0.263411
-0.119668
0.209105
-0.127405
0.0887188
-0.127429
0.0260339
-0.118803
-0.0245053
-0.0847593
-0.163588
-0.0308531
-0.273049
0.00850719
-0.229413
0.0469445
-0.191412
-0.0956805
0.0712961
0.0277675
-0.0709438
0.0716739
0.02861
0.0720838
0.029475
0.0724487
0.0303588
0.0726042
0.0311315
0.0723369
0.0316588
0.0714439
0.0318592
0.0697766
0.0316911
0.0672643
0.0311393
0.0639166
0.0302121
0.0598151
0.0289389
0.0550996
0.0273637
0.0499508
0.025542
0.0445686
0.0235381
0.0391503
0.0214229
0.0338695
0.0192683
0.028862
0.0171419
0.0242207
0.0150986
0.0199989
0.0131789
0.0162172
0.0114073
0.0128731
0.00979538
0.00994851
0.00834547
0.00741562
0.00705275
0.00524187
0.0059091
0.00339259
0.00490372
0.00183316
0.00402522
0.000530188
0.00326165
-0.000547442
0.00260144
-0.00142886
0.00203377
-0.00214078
0.00154987
-0.00270628
0.00113712
-0.00314663
0.0007898
-0.00347998
0.000499593
-0.00373164
0.000259005
-0.00389992
5.77796e-05
-0.00400972
-9.98311e-05
-0.00406986
-0.000227831
-0.0040875
-0.000329896
-0.00407157
-0.000406914
-0.00402921
-0.000463811
-0.00396604
-0.000505639
-0.00388627
-0.000536953
-0.00379369
-0.000558502
-0.00369138
-0.000572765
-0.00358157
-0.000581893
-0.00346683
-0.000583075
-0.00334987
-0.000575003
-0.00323397
-0.000554102
-0.00312284
-0.000517971
-0.00302039
-0.000465441
-0.00293059
-0.000395976
-0.00285655
-0.000313724
-0.0027999
-0.000224769
-0.00276003
-0.000139382
-0.00273258
-7.42826e-05
-0.00270836
-5.15097e-05
-0.00267161
-0.000101106
-0.00259851
-0.00026233
-0.00245689
-0.000577371
-0.00220786
-0.00108102
-0.00181019
-0.00178641
-0.00122865
-0.00266424
-0.000443064
-0.00363376
0.000537519
-0.00453891
0.00167622
-0.00523449
0.00289332
-0.00549139
0.00407285
-0.00514813
0.00507332
-0.00411785
0.00575204
-0.00245824
0.00597173
-0.000281916
0.00565242
0.00206306
0.00475981
0.00433741
0.00334476
0.00617162
0.00153406
0.00739955
-0.000475329
0.00803302
-0.00240299
0.00793698
-0.00401399
0.00711602
-0.00528218
0.0061456
-0.00625151
0.00515492
-0.00668373
0.00277869
-0.00648522
-0.000345463
-0.00571129
-0.00339811
-0.00476832
-0.00477854
-0.00418256
-0.00406577
-0.00419248
-0.00223427
-0.00541717
0.00290703
-0.00906611
0.0140951
-0.0156028
0.0284102
-0.0244519
0.0421886
-0.0343529
0.0519437
-0.0435719
0.0553025
-0.0476877
0.0369682
-0.0408476
-0.0197786
-0.0248003
-0.0809426
0.00574688
-0.190079
0.0225299
-0.082228
0.00359396
0.0755416
0.0449653
-0.270741
0.103734
-0.21942
0.0848706
0.186994
0.0515202
0.162718
0.0189006
0.124629
-0.000828274
0.0792725
-0.00587937
0.0207668
0.0144942
-0.103907
0.0353354
-0.0945412
0.0377176
-0.0105324
0.0414626
-0.0483315
0.0206371
0.0517845
-0.0372349
0.234561
-0.102571
0.328748
-0.134999
0.241533
-0.139327
0.093047
-0.138585
0.0252914
-0.12924
-0.0338495
-0.0942025
-0.198626
-0.0360998
-0.331152
0.00489789
-0.270411
0.046112
-0.232626
-0.127309
0.0759149
0.0274485
-0.0755959
0.0762386
0.0282863
0.0765738
0.0291398
0.0768958
0.0300368
0.0771357
0.0308916
0.0771801
0.0316144
0.0768875
0.0321518
0.0761123
0.0324663
0.0747271
0.0325244
0.0726398
0.0322995
0.0698034
0.0317753
0.0662216
0.0309455
0.0619511
0.0298126
0.0570993
0.0283898
0.0518171
0.0267051
0.0462835
0.024802
0.0406854
0.02274
0.0351962
0.0205878
0.0299592
0.0184159
0.0250787
0.0162879
0.0206196
0.0142545
0.0166133
0.0123518
0.0130646
0.0106014
0.00996011
0.00901361
0.00727422
0.00758964
0.00497435
0.00632511
0.00302449
0.00521156
0.00138764
0.00423832
2.686e-05
0.00339458
-0.00108878
0.00266552
-0.00199475
0.0020431
-0.00271896
0.00151403
-0.00328799
0.00106864
-0.00372343
0.000694464
-0.00405343
0.000387787
-0.00428676
0.000133504
-0.00444124
-7.33398e-05
-0.00453624
-0.000234887
-0.00457823
-0.000364929
-0.00457846
-0.000463583
-0.00454534
-0.000538759
-0.00448532
-0.00059697
-0.00440411
-0.000639716
-0.00430642
-0.000670458
-0.00419569
-0.000692628
-0.00407559
-0.000703175
-0.00394978
-0.000700812
-0.00382245
-0.000681428
-0.00369824
-0.00064218
-0.00358189
-0.000581782
-0.00347828
-0.000499579
-0.00339119
-0.000400793
-0.00332275
-0.000293189
-0.00327245
-0.000189674
-0.00323547
-0.000111247
-0.00320141
-8.55527e-05
-0.0031525
-0.000150014
-0.00306195
-0.000352886
-0.00289379
-0.000745529