/*--------------------------------*- C++ -*----------------------------------*\
| =========                 |                                                 |
| \\      /  F ield         | OpenFOAM: The Open Source CFD Toolbox           |
|  \\    /   O peration     | Version:  2412                                  |
|   \\  /    A nd           | Website:  www.openfoam.com                      |
|    \\/     M anipulation  |                                                 |
\*---------------------------------------------------------------------------*/
FoamFile
{
    version     2.0;
    format      ascii;
    arch        "LSB;label=32;scalar=64";
    class       volVectorField;
    location    "1.135";
    object      U_0;
}
// * * * * * * * * * * * * * * * * * * * * * * * * * * * * * * * * * * * * * //

dimensions      [0 1 -1 0 0 0 0];

internalField   nonuniform List<vector> 
12600
(
(19.4833 0 -0.69199)
(7.89428 -3.74468e-20 -1.63711)
(3.34168 -1.73318e-20 -1.6849)
(1.69733 0 -1.24218)
(1.06706 -2.19573e-22 -0.827039)
(0.731377 0 -0.559869)
(0.506561 -3.07473e-20 -0.389485)
(0.344232 0 -0.272569)
(0.223434 0 -0.187473)
(0.131938 0 -0.123497)
(0.0608715 0 -0.0754915)
(0.00539154 -9.81818e-20 -0.0381143)
(-0.0379406 -1.00353e-19 -0.00858508)
(-0.0720729 0 0.0150727)
(-0.0988645 2.03744e-19 0.0331327)
(-0.11925 0 0.0477582)
(-0.134927 2.96112e-22 0.0592884)
(-0.146465 0 0.0681622)
(-0.154939 9.8513e-20 0.074831)
(-0.160617 0 0.0796908)
(-0.164093 0 0.0830691)
(-0.165496 0 0.0851666)
(-0.165374 3.62113e-19 0.0862007)
(-0.164092 -3.52914e-19 0.0865342)
(-0.161559 -2.32656e-22 0.0863903)
(-0.158076 1.66765e-19 0.0853078)
(-0.154263 0 0.083485)
(-0.149788 0 0.0816698)
(-0.144752 0 0.0794998)
(-0.139549 -2.92319e-19 0.0769927)
(-0.134129 -5.64463e-19 0.0743181)
(-0.128585 0 0.0715356)
(-0.123029 0 0.068665)
(-0.117466 -2.52869e-19 0.065736)
(-0.111959 -2.43449e-19 0.0628136)
(-0.10658 0 0.0599366)
(-0.101351 0 0.0571104)
(-0.0962983 -4.32966e-19 0.0543553)
(-0.0914389 0 0.0516915)
(-0.0867931 6.36661e-23 0.0491342)
(-0.0823705 -3.83528e-19 0.0466879)
(-0.0781548 -3.68096e-19 0.0443442)
(-0.0741286 0 0.042098)
(-0.0702849 -3.38619e-19 0.0399479)
(-0.0665991 -3.24595e-19 0.0378813)
(-0.0630761 6.22173e-19 0.0358995)
(-0.059729 -5.96138e-19 0.0340145)
(-0.0565848 0 0.0322443)
(-0.0537059 5.46694e-19 0.030619)
(-0.0511476 -5.23321e-19 0.0291714)
(-0.0489773 0 0.0279416)
(-0.0472496 -2.5292e-23 0.0269588)
(-0.0459992 4.58254e-19 0.0262366)
(-0.045248 0 0.0257696)
(-0.0448866 -8.38332e-19 0.0255674)
(-0.0447666 0 0.025534)
(-0.044748 0 0.0254609)
(-0.0444137 6.98009e-24 0.0251885)
(-0.0431217 4.11288e-23 0.0244623)
(-0.0402165 6.68914e-19 0.0227831)
(-0.0348398 -6.39251e-19 0.019602)
(-0.0261754 1.22119e-18 0.0145564)
(-0.0136346 0 0.00733029)
(0.00255908 1.11179e-18 -0.00192864)
(0.0216666 1.05902e-18 -0.0127527)
(0.041784 -2.01468e-18 -0.0239934)
(0.0602686 9.56904e-19 -0.0344712)
(0.0741351 0 -0.0424049)
(0.0813266 0 -0.0466234)
(0.0803741 0 -0.0461287)
(0.0718377 0 -0.0412436)
(0.0574975 0 -0.0330939)
(0.0401932 -1.39953e-18 -0.0231061)
(0.0233598 1.32809e-18 -0.0131577)
(0.00786207 0 -0.00389746)
(-0.00833264 0 0.00573112)
(-0.0274074 1.11484e-18 0.0168955)
(-0.0479434 1.34245e-22 0.0286513)
(-0.0707849 1.9753e-18 0.0414803)
(-0.0913564 0 0.0525339)
(-0.101697 0 0.0580872)
(-0.100343 0 0.0568866)
(-0.0869992 -3.08164e-22 0.0490619)
(-0.0693855 0 0.0388656)
(-0.0481936 0 0.0269192)
(-0.0293885 1.39936e-18 0.0166829)
(-0.0311905 7.26636e-23 0.018477)
(-0.0687325 0 0.0408226)
(-0.148355 0 0.0871561)
(-0.280131 -2.17483e-18 0.161701)
(-0.453411 -2.07414e-18 0.258794)
(-0.671087 -2.03114e-18 0.380712)
(-0.808876 -2.07996e-18 0.458134)
(-0.705062 -2.67436e-21 0.395398)
(-0.335732 -1.94707e-21 0.182159)
(0.44849 2.12914e-18 -0.261748)
(-0.100937 0 0.050827)
(0.557973 0 -0.321592)
(1.79367 0 -1.01359)
(0.794585 4.88998e-18 -0.444435)
(0.228899 -2.63738e-18 -0.136115)
(0.160607 2.27526e-18 -0.0896052)
(0.0116919 2.22755e-18 -0.00577466)
(-0.101895 0 0.0597733)
(-0.122965 0 0.0648777)
(0.290242 0 -0.166961)
(0.259265 3.34823e-18 -0.146894)
(0.362112 0 -0.206039)
(0.562539 -2.77274e-18 -0.319331)
(0.500372 0 -0.279235)
(0.191043 0 -0.0931004)
(-0.406322 1.38999e-18 0.250548)
(-0.913171 0 0.534686)
(-1.17632 0 0.676506)
(-1.31683 0 0.753827)
(-1.23331 -2.35428e-18 0.701016)
(-0.580299 0 0.333612)
(0.0629252 1.9968e-18 -0.028767)
(0.515206 0 -0.292164)
(0.620566 -4.01864e-22 -0.356068)
(31.0628 -1.55829e-20 -1.06207)
(21.6778 2.14784e-20 -3.44561)
(13.7525 1.35373e-20 -4.33243)
(8.71741 0 -3.75659)
(5.81177 -1.24692e-20 -2.83331)
(4.05748 2.30823e-20 -2.07655)
(2.91871 3.20742e-20 -1.52447)
(2.12473 -3.73902e-20 -1.12051)
(1.54208 0 -0.816965)
(1.10039 0 -0.583426)
(0.758063 0 -0.401743)
(0.489429 0 -0.25783)
(0.276424 0 -0.142724)
(0.105308 0 -0.0500007)
(-0.0307858 -7.28986e-22 0.025174)
(-0.139152 0 0.0850306)
(-0.22635 1.05176e-19 0.132545)
(-0.294796 0 0.170606)
(-0.348571 -2.04684e-19 0.200414)
(-0.38954 2.0087e-19 0.223212)
(-0.420186 0 0.240315)
(-0.441717 1.92377e-19 0.252549)
(-0.455988 -1.88047e-19 0.26038)
(-0.464374 1.83187e-19 0.264527)
(-0.46746 -1.78249e-19 0.266212)
(-0.466237 0 0.265359)
(-0.461652 1.67084e-19 0.26218)
(-0.453868 0 0.257977)
(-0.443828 0 0.252236)
(-0.432041 0 0.245453)
(-0.418797 2.91865e-19 0.23794)
(-0.404492 0 0.229882)
(-0.389514 0 0.221411)
(-0.374029 0 0.212647)
(-0.358318 0 0.203796)
(-0.34265 0 0.194974)
(-0.327131 0 0.186224)
(-0.311908 4.45469e-19 0.177634)
(-0.297092 0 0.169275)
(-0.282774 8.20537e-19 0.161198)
(-0.269003 7.87012e-19 0.153421)
(-0.255762 3.77228e-19 0.145928)
(-0.243025 0 0.138715)
(-0.230795 0 0.131779)
(-0.219009 6.63502e-19 0.125088)
(-0.207686 -6.35278e-19 0.118659)
(-0.196886 6.07909e-19 0.112531)
(-0.186708 0 0.106768)
(-0.177346 -5.56277e-19 0.101481)
(-0.168979 0 0.0967749)
(-0.16183 0 0.0927814)
(-0.156077 -4.85864e-19 0.0895966)
(-0.15182 0 0.0872688)
(-0.149085 0 0.0857761)
(-0.147619 8.47011e-19 0.0850408)
(-0.146974 0 0.084786)
(-0.146516 0 0.0843825)
(-0.144866 -1.97827e-24 0.0833325)
(-0.140252 7.03395e-19 0.0804327)
(-0.130354 -8.15699e-23 0.0743588)
(-0.112372 0 0.0634446)
(-0.0838045 -1.22208e-18 0.046371)
(-0.0428203 -1.16488e-18 0.0221742)
(0.00992747 0 -0.00858413)
(0.0720909 -2.11059e-18 -0.0443703)
(0.137535 2.04175e-23 -0.0816875)
(0.198244 0 -0.116184)
(0.244636 9.00904e-19 -0.142216)
(0.269937 0 -0.156013)
(0.26889 0 -0.154424)
(0.242572 0 -0.138421)
(0.195972 0 -0.111226)
(0.137398 2.75621e-18 -0.0773439)
(0.0773034 -1.30592e-18 -0.042568)
(0.0193314 0 -0.00906997)
(-0.0406669 0 0.0256265)
(-0.106724 1.09161e-18 0.0639923)
(-0.173241 2.18125e-22 0.102514)
(-0.243515 1.10771e-22 0.142985)
(-0.303734 0 0.176526)
(-0.330015 0 0.190798)
(-0.319476 0 0.183601)
(-0.272302 -4.70549e-22 0.15563)
(-0.214886 -1.49944e-18 0.122067)
(-0.150755 1.42746e-18 0.0849884)
(-0.097759 -1.35208e-18 0.0555063)
(-0.1127 1.20477e-22 0.0668453)
(-0.245794 -1.19366e-18 0.14703)
(-0.513548 0 0.305441)
(-0.937376 2.09039e-18 0.55204)
(-1.4759 0 0.864961)
(-2.12986 1.9475e-18 1.24189)
(-2.51568 0 1.45419)
(-2.15227 -4.1311e-18 1.22423)
(-1.0036 -2.09876e-18 0.532869)
(1.54588 0 -0.902697)
(-0.165992 0 0.0978703)
(1.72466 -4.01624e-18 -1.06054)
(5.49305 3.20507e-18 -3.18565)
(2.59099 -4.65535e-18 -1.43244)
(0.864394 2.50481e-18 -0.481509)
(0.501834 -2.15896e-18 -0.280019)
(0.033622 0 -0.0114489)
(-0.343555 1.87371e-18 0.203544)
(-0.299863 0 0.161107)
(0.951518 0 -0.561402)
(0.803209 -3.167e-18 -0.465273)
(1.14618 0 -0.671561)
(1.72548 -2.56866e-21 -1.00101)
(1.40705 2.27854e-18 -0.804949)
(0.231634 0 -0.111216)
(-1.70593 0 1.01339)
(-3.19482 0 1.86482)
(-3.87287 9.52931e-19 2.24584)
(-4.16611 -1.96677e-18 2.40841)
(-3.86033 2.21324e-18 2.20913)
(-1.9283 0 1.07607)
(0.0388379 -1.8755e-18 -0.0539514)
(1.57684 0 -0.927108)
(2.01902 2.87001e-18 -1.16764)
(34.6653 3.31885e-20 -0.947977)
(30.1025 -8.8203e-21 -3.04491)
(23.5271 -3.24764e-21 -4.75206)
(17.3018 0 -5.12045)
(12.4835 -1.48005e-20 -4.5826)
(9.08957 6.00171e-22 -3.7533)
(6.7303 0 -2.96218)
(5.04254 3.54886e-20 -2.30122)
(3.79254 0 -1.76831)
(2.84038 4.29469e-20 -1.34035)
(2.09986 0 -0.994977)
(1.51467 0 -0.714913)
(1.04699 0 -0.486705)
(0.669434 0 -0.30026)
(0.365545 -9.98892e-20 -0.145355)
(0.118469 0 -0.0205142)
(-0.081567 0 0.0817638)
(-0.242506 0 0.164494)
(-0.37215 9.69515e-20 0.231091)
(-0.474487 -5.41261e-22 0.284185)
(-0.554611 0 0.325865)
(-0.615664 -4.23019e-22 0.357719)
(-0.660944 0 0.381096)
(-0.692898 -1.73207e-19 0.397166)
(-0.713373 0 0.407567)
(-0.724609 0 0.412714)
(-0.72833 -1.58485e-19 0.412837)
(-0.725247 0 0.409909)
(-0.716732 0 0.404244)
(-0.703905 -2.86293e-19 0.396254)
(-0.687522 0 0.386615)
(-0.668398 0 0.37566)
(-0.647292 0 0.363661)
(-0.624628 0 0.35088)
(-0.600977 2.37676e-19 0.33768)
(-0.576878 0 0.324266)
(-0.552587 0 0.310754)
(-0.528409 -4.21716e-19 0.297327)
(-0.504599 0 0.284121)
(-0.481358 -7.76881e-19 0.271235)
(-0.458812 -8.05238e-23 0.258717)
(-0.43697 -3.5714e-19 0.246561)
(-0.415829 0 0.234777)
(-0.39542 0 0.223379)
(-0.375667 -3.13906e-19 0.212326)
(-0.356611 0 0.201668)
(-0.338373 -5.75056e-19 0.191481)
(-0.321128 0 0.181888)
(-0.3052 5.15425e-23 0.173083)
(-0.290902 0 0.165246)
(-0.278608 0 0.158597)
(-0.268625 0 0.153294)
(-0.261117 -4.38498e-19 0.149412)
(-0.256104 0 0.146929)
(-0.253235 0 0.145578)
(-0.251754 0 0.144889)
(-0.250456 0 0.143881)
(-0.247099 1.39084e-18 0.141565)
(-0.238756 0 0.135833)
(-0.221432 -6.68772e-23 0.124531)
(-0.190413 0 0.105018)
(-0.141591 5.76214e-19 0.075059)
(-0.0719244 1.09831e-18 0.0331929)
(0.0175851 0 -0.0194865)
(0.123055 1.98894e-18 -0.0803397)
(0.234296 9.4439e-19 -0.143679)
(0.338335 0 -0.201867)
(0.419039 -8.48429e-19 -0.245699)
(0.464778 0 -0.268971)
(0.466026 0 -0.266378)
(0.423669 0 -0.239244)
(0.344995 0 -0.192453)
(0.242989 4.80678e-23 -0.133088)
(0.134611 1.22811e-18 -0.0702109)
(0.0271324 0 -0.0077743)
(-0.0833595 0 0.0565257)
(-0.200021 2.22917e-22 0.12426)
(-0.312214 -1.92608e-18 0.188829)
(-0.426443 -9.05466e-19 0.253713)
(-0.520891 0 0.304362)
(-0.557106 0 0.32127)
(-0.532828 0 0.303075)
(-0.449211 -2.94755e-18 0.252157)
(-0.352673 3.29131e-22 0.195706)
(-0.250653 -1.33907e-18 0.137588)
(-0.171416 0 0.0964216)
(-0.20815 -1.19352e-18 0.12714)
(-0.447264 1.11905e-18 0.276693)
(-0.911354 0 0.556731)
(-1.62362 0 0.974986)
(-2.50632 1.864e-18 1.48872)
(-3.54667 0 2.07828)
(-4.11201 1.85702e-18 2.3651)
(-3.46096 3.21778e-21 1.91908)
(-1.61513 1.95967e-18 0.769576)
(2.70299 -1.90074e-18 -1.59843)
(-0.0845793 0 0.0450266)
(2.64709 3.75861e-18 -1.73733)
(8.90047 -2.99898e-18 -5.1399)
(4.48542 4.36221e-18 -2.38537)
(1.63884 0 -0.883949)
(0.848018 -2.02102e-18 -0.451197)
(0.0569722 0 -0.00440606)
(-0.585482 -1.75205e-18 0.352106)
(-0.404035 1.71812e-18 0.181303)
(1.61571 0 -0.96954)
(1.33076 2.96035e-18 -0.766918)
(1.90133 0 -1.12386)
(2.78516 4.8982e-18 -1.60669)
(2.10843 -2.12921e-18 -1.15598)
(-0.0680926 0 0.159241)
(-3.31515 0 2.0384)
(-5.61083 0 3.31109)
(-6.53258 -5.08107e-22 3.79194)
(-6.83866 1.83712e-18 3.93599)
(-6.26252 -2.05917e-18 3.52795)
(-3.18875 0 1.72014)
(-0.0737035 -1.75463e-18 -0.0499086)
(2.48403 0 -1.48349)
(3.37226 4.14848e-22 -1.95082)
(35.2717 -1.74408e-20 -1.15975)
(33.9971 -5.03709e-21 -2.39669)
(30.193 7.11879e-21 -4.17438)
(25.0616 -1.49002e-20 -5.31639)
(19.8928 -2.10886e-20 -5.52029)
(15.4526 -4.39724e-20 -5.07169)
(11.9375 0 -4.34943)
(9.23406 0 -3.59058)
(7.15324 0 -2.89712)
(5.53272 -4.06805e-20 -2.29774)
(4.25364 0 -1.79105)
(3.23173 0 -1.3663)
(2.4074 0 -1.01119)
(1.73684 0 -0.714862)
(1.19008 0 -0.466351)
(0.742236 -9.36806e-20 -0.260869)
(0.375951 9.32594e-20 -0.088815)
(0.0758304 0 0.0520439)
(-0.168799 0 0.168207)
(-0.366511 -1.80053e-19 0.262506)
(-0.525449 1.76055e-19 0.338586)
(-0.651084 -1.72487e-19 0.398875)
(-0.748594 1.67969e-19 0.445988)
(-0.82243 1.64016e-19 0.481558)
(-0.876274 -1.59067e-19 0.5074)
(-0.913632 1.54401e-19 0.524858)
(-0.936733 0 0.534847)
(-0.947916 -1.45008e-19 0.538175)
(-0.949951 0 0.535479)
(-0.943376 2.70964e-19 0.529707)
(-0.930046 0 0.520821)
(-0.911407 0 0.509406)
(-0.888636 0 0.496027)
(-0.862552 -2.3359e-19 0.481076)
(-0.834109 -2.24832e-19 0.465118)
(-0.804206 0 0.448471)
(-0.773321 0 0.431352)
(-0.741981 3.98782e-19 0.414064)
(-0.710634 0 0.396837)
(-0.679646 1.00103e-22 0.379832)
(-0.649261 -3.52088e-19 0.363141)
(-0.61956 0 0.346784)
(-0.590591 0 0.330808)
(-0.562444 0 0.315251)
(-0.535059 0 0.30008)
(-0.508515 -5.67484e-19 0.285389)
(-0.483007 0 0.271304)
(-0.458792 5.19297e-19 0.258018)
(-0.436335 4.96574e-19 0.245807)
(-0.416079 0 0.23493)
(-0.398558 0 0.22569)
(-0.384205 0 0.218299)
(-0.373253 4.13704e-19 0.212853)
(-0.365718 -3.95003e-19 0.209317)
(-0.361109 -7.54174e-19 0.207302)
(-0.358446 0 0.205947)
(-0.355842 -6.86848e-19 0.204122)
(-0.350326 -1.31092e-18 0.200075)
(-0.337687 0 0.191045)
(-0.312425 -1.19327e-18 0.173879)
(-0.26804 0 0.144925)
(-0.198837 -5.42573e-19 0.101227)
(-0.100648 -1.034e-18 0.0409628)
(0.0252411 0 -0.0341611)
(0.173566 -9.36033e-19 -0.120342)
(0.330573 -8.88708e-19 -0.209427)
(0.478489 0 -0.291048)
(0.594978 0 -0.352527)
(0.663536 0 -0.385319)
(0.669971 7.1538e-19 -0.381836)
(0.614108 6.77712e-19 -0.343445)
(0.504363 0 -0.276444)
(0.35738 -1.21818e-18 -0.190146)
(0.195878 -1.15398e-18 -0.0964878)
(0.0317365 0 -0.00147239)
(-0.135888 0 0.0957164)
(-0.306153 -9.63388e-19 0.194047)
(-0.46261 -1.87634e-22 0.283636)
(-0.615965 0 0.370149)
(-0.737984 0 0.433399)
(-0.777452 0 0.448374)
(-0.735131 0 0.415755)
(-0.613328 4.30097e-22 0.340723)
(-0.480043 1.31882e-18 0.262699)
(-0.347487 0 0.187694)
(-0.252589 0 0.141904)
(-0.321886 0 0.201071)
(-0.678088 1.04889e-18 0.430354)
(-1.34439 0 0.839859)
(-2.33501 1.83515e-18 1.42812)
(-3.52994 -1.74554e-18 2.12797)
(-4.88771 1.70241e-18 2.89207)
(-5.54753 -1.73846e-18 3.19107)
(-4.56965 3.60787e-18 2.49367)
(-2.14385 -1.83402e-18 0.91287)
(3.87523 1.77859e-18 -2.31692)
(0.158407 0 -0.0798732)
(3.17467 0 -2.2602)
(11.9071 -2.82332e-18 -6.93241)
(6.47314 -2.04118e-18 -3.3469)
(2.57273 -2.1892e-18 -1.34034)
(1.21248 -9.04632e-22 -0.618781)
(0.0844039 0 0.011603)
(-0.81437 0 0.495109)
(-0.436783 -1.60594e-18 0.152937)
(2.26728 0 -1.38366)
(1.84582 -2.76911e-18 -1.06837)
(2.61282 0 -1.56528)
(3.70382 2.45694e-21 -2.14114)
(2.55407 0 -1.35705)
(-0.739456 -1.58185e-18 0.649705)
(-5.20262 1.15707e-18 3.22952)
(-8.05428 9.20517e-19 4.77619)
(-9.01924 -6.50233e-22 5.24423)
(-9.21307 0 5.30052)
(-8.30705 1.92302e-18 4.63774)
(-4.24133 1.94841e-18 2.20354)
(-0.220229 1.63842e-18 -0.075152)
(3.15612 0 -1.93957)
(4.61008 4.51648e-22 -2.67924)
(34.9108 0 -1.65375)
(35.049 -3.67837e-21 -2.19785)
(33.5816 0 -3.51337)
(30.4804 1.40778e-20 -4.83618)
(26.3737 3.31544e-20 -5.61666)
(22.0205 2.14216e-20 -5.74714)
(17.9746 0 -5.39216)
(14.4896 0 -4.77713)
(11.6002 -3.49617e-20 -4.07607)
(9.24107 -3.78368e-20 -3.38864)
(7.32101 4.00721e-20 -2.75968)
(5.7544 8.34576e-20 -2.20368)
(4.47074 8.57756e-20 -1.7209)
(3.41391 0 -1.30625)
(2.54186 0 -0.951165)
(1.82045 1.76749e-19 -0.650596)
(1.22343 -3.65694e-22 -0.395797)
(0.729413 0 -0.182396)
(0.321855 -8.5967e-20 -0.00310833)
(-0.0130758 -1.69228e-19 0.144957)
(-0.286646 -1.66447e-19 0.267045)
(-0.508063 0 0.366069)
(-0.685126 -1.58785e-19 0.445747)
(-0.82472 1.54416e-19 0.508299)
(-0.932188 1.50352e-19 0.556219)
(-1.01246 -1.3081e-22 0.592094)
(-1.06964 0 0.617883)
(-1.10801 1.93859e-22 0.633876)
(-1.13024 0 0.641094)
(-1.1395 2.55582e-19 0.640279)
(-1.13733 0 0.635275)
(-1.12582 0 0.626485)
(-1.10707 0 0.614272)
(-1.08235 2.20627e-19 0.599411)
(-1.05314 0 0.582658)
(-1.02078 0 0.564486)
(-0.986092 0 0.545236)
(-0.949894 0 0.525354)
(-0.912904 -3.61082e-19 0.505184)
(-0.87571 6.92864e-19 0.484977)
(-0.83873 0 0.464885)
(-0.802169 3.18314e-19 0.444974)
(-0.766165 0 0.425344)
(-0.730907 0 0.406074)
(-0.69638 0 0.387156)
(-0.662723 8.40748e-23 0.368744)
(-0.630219 0 0.351026)
(-0.599222 -4.89644e-19 0.334272)
(-0.570337 0 0.31885)
(-0.544149 0 0.305098)
(-0.521345 -4.27363e-19 0.293402)
(-0.502495 0 0.284024)
(-0.487901 0 0.277067)
(-0.477582 3.82656e-23 0.272453)
(-0.470892 7.10342e-19 0.269715)
(-0.466656 0 0.267512)
(-0.462241 -2.4487e-23 0.264638)
(-0.454134 1.23401e-18 0.258309)
(-0.436755 0 0.245308)
(-0.403162 5.61448e-19 0.221519)
(-0.345187 0 0.182354)
(-0.255682 5.10426e-19 0.124215)
(-0.129443 9.72565e-19 0.045076)
(0.0320382 0 -0.0526452)
(0.222283 8.8e-19 -0.163994)
(0.424412 1.2426e-23 -0.278359)
(0.616353 0 -0.382837)
(0.769977 0 -0.461529)
(0.863946 0 -0.503695)
(0.878916 -1.34405e-18 -0.499531)
(0.812697 2.56518e-23 -0.450145)
(0.67371 0 -0.362633)
(0.481074 1.14379e-18 -0.248167)
(0.262489 2.16654e-18 -0.121097)
(0.0354783 0 0.0102498)
(-0.194939 0 0.143444)
(-0.420906 0 0.272938)
(-0.619612 -1.81303e-22 0.385545)
(-0.807045 0 0.489834)
(-0.950133 0 0.560472)
(-0.987301 0 0.568254)
(-0.924115 0 0.517775)
(-0.764105 1.2947e-18 0.417945)
(-0.597865 1.23507e-18 0.32106)
(-0.443275 0 0.235207)
(-0.344281 0 0.19377)
(-0.457153 0 0.292189)
(-0.940267 2.22143e-22 0.611977)
(-1.81105 0 1.15658)
(-3.06389 -1.71796e-18 1.9082)
(-4.53175 0 2.77118)
(-6.13278 -1.59324e-18 3.65665)
(-6.79533 0 3.89522)
(-5.45849 -1.68608e-18 2.90561)
(-2.57656 0 0.934656)
(4.98451 0 -3.02205)
(0.545732 0 -0.277089)
(3.20814 0 -2.57026)
(14.4717 2.63994e-18 -8.47831)
(8.54128 0 -4.29379)
(3.67497 2.04653e-18 -1.85396)
(1.62183 1.76719e-18 -0.78521)
(0.122604 0 0.036116)
(-1.0166 0 0.624502)
(-0.426256 0 0.0726)
(2.89129 0 -1.79483)
(2.36212 -1.32073e-21 -1.36595)
(3.27712 0 -1.98548)
(4.47165 -4.28404e-18 -2.57221)
(2.74686 0 -1.35774)
(-1.72905 2.95987e-18 1.39881)
(-7.2584 -1.08067e-18 4.57269)
(-10.3795 -8.59685e-19 6.18915)
(-11.2152 -7.75386e-19 6.52168)
(-11.2172 0 6.42981)
(-9.94122 0 5.46503)
(-5.01703 -3.63773e-18 2.48747)
(-0.332624 1.53236e-18 -0.14675)
(3.54493 1.32982e-18 -2.25427)
(5.67652 -1.16888e-18 -3.3156)
(34.4539 0 -2.11637)
(34.8671 3.3493e-20 -2.33432)
(34.6871 0 -3.11682)
(33.3572 0 -4.20973)
(30.8448 0 -5.18975)
(27.5098 0 -5.76963)
(23.824 0 -5.88065)
(20.1782 3.02629e-20 -5.60799)
(16.8177 3.2989e-20 -5.09196)
(13.8548 7.12919e-20 -4.45998)
(11.3093 -7.54266e-20 -3.80095)
(9.15197 -7.87715e-20 -3.16666)
(7.33531 -8.09642e-20 -2.58259)
(5.80913 0 -2.05909)
(4.52875 0 -1.59664)
(3.45513 -1.66093e-19 -1.19428)
(2.55565 -1.65467e-19 -0.846204)
(1.80296 0 -0.548448)
(1.17454 8.11495e-20 -0.294576)
(0.651949 1.5974e-19 -0.0804147)
(0.219107 0 0.0991872)
(-0.136855 1.52933e-19 0.248079)
(-0.427111 0 0.37032)
(-0.661429 -2.5265e-22 0.469334)
(-0.84768 -1.41514e-19 0.548144)
(-0.993299 -1.65586e-22 0.609335)
(-1.10407 0 0.655658)
(-1.18523 1.29116e-19 0.68928)
(-1.24161 -2.49348e-19 0.712518)
(-1.27762 -4.82028e-19 0.724553)
(-1.29646 -2.32523e-19 0.726936)
(-1.30106 0 0.723329)
(-1.29354 -2.15925e-19 0.71543)
(-1.27637 0 0.703166)
(-1.25155 0 0.687882)
(-1.22107 0 0.670158)
(-1.18621 0 0.650485)
(-1.14816 0 0.629483)
(-1.10801 1.11986e-22 0.607638)
(-1.06665 -3.2649e-19 0.585314)
(-1.02474 0 0.562745)
(-0.982681 -5.99863e-19 0.540056)
(-0.940741 0 0.517429)
(-0.899254 0 0.494998)
(-0.858294 0 0.472796)
(-0.818084 5.04067e-19 0.451056)
(-0.779015 0 0.430043)
(-0.741551 0 0.410113)
(-0.706447 0 0.391734)
(-0.674433 0 0.375323)
(-0.646353 8.04524e-19 0.361352)
(-0.622918 0 0.350121)
(-0.604505 0 0.341732)
(-0.591136 3.50087e-19 0.336053)
(-0.582064 0 0.332455)
(-0.575784 0 0.329312)
(-0.569179 1.2165e-18 0.324953)
(-0.557989 -5.80186e-19 0.315909)
(-0.535404 0 0.298314)
(-0.493183 0 0.267144)
(-0.421611 0 0.216989)
(-0.312212 -4.79563e-19 0.143762)
(-0.158846 0 0.045405)
(0.0368794 0 -0.0748395)
(0.267503 -1.65319e-18 -0.210857)
(0.513491 1.56925e-18 -0.349715)
(0.749102 0 -0.476196)
(0.940936 0 -0.571505)
(1.06295 0 -0.622911)
(1.09029 6.30764e-19 -0.618363)
(1.01777 -5.97334e-19 -0.558309)
(0.85242 -1.13206e-18 -0.450259)
(0.614587 -1.07301e-18 -0.306688)
(0.336045 -1.01611e-18 -0.143914)
(0.0408527 9.59987e-19 0.0268643)
(-0.25717 0 0.198243)
(-0.540082 0 0.35852)
(-0.778351 7.95269e-19 0.491562)
(-0.994457 0 0.609622)
(-1.15232 0 0.682477)
(-1.18228 0 0.67884)
(-1.0966 0 0.608218)
(-0.899867 0 0.484076)
(-0.706108 -2.31296e-18 0.372063)
(-0.539602 0 0.28212)
(-0.449103 -1.04215e-18 0.255016)
(-0.617166 0 0.403387)
(-1.23526 2.20098e-22 0.823668)
(-2.30785 1.71747e-18 1.50616)
(-3.79918 0 2.40945)
(-5.49114 0 3.40643)
(-7.25018 0 4.35733)
(-7.82099 0 4.46445)
(-6.10383 1.56967e-18 3.15632)
(-2.88021 0 0.822487)
(5.92522 0 -3.65544)
(1.05601 0 -0.503228)
(2.73623 0 -2.65567)
(16.4864 0 -9.78753)
(10.6391 0 -5.21271)
(4.94949 0 -2.41951)
(2.10164 0 -0.961155)
(0.179973 -1.6138e-18 0.0665936)
(-1.17891 0 0.73243)
(-0.39439 0 -0.0384706)
(3.47096 0 -2.19492)
(2.88205 2.41808e-18 -1.669)
(3.88747 0 -2.38208)
(5.06433 2.00171e-18 -2.89873)
(2.66523 0 -1.16783)
(-3.01245 4.78258e-21 2.35501)
(-9.38688 0 5.9771)
(-12.4483 8.04656e-19 7.45285)
(-13.0223 0 7.56964)
(-12.7919 0 7.30893)
(-11.1397 0 6.02223)
(-5.51912 1.69775e-18 2.57633)
(-0.382141 -2.86215e-18 -0.284511)
(3.62272 -2.48342e-18 -2.42051)
(6.52229 -1.0918e-18 -3.84172)
(34.1206 0 -2.40992)
(34.4162 -3.59442e-20 -2.54965)
(34.6586 0 -2.9861)
(34.3589 0 -3.74362)
(33.2034 -2.75522e-20 -4.62542)
(31.1797 -2.69969e-20 -5.37935)
(28.4777 2.78264e-20 -5.83599)
(25.3686 -8.75466e-20 -5.94443)
(22.1216 0 -5.74422)
(18.9534 3.41459e-23 -5.32)
(16.0066 3.54378e-20 -4.76268)
(13.3543 0 -4.14717)
(11.0183 0 -3.52577)
(8.98886 0 -2.93129)
(7.24178 0 -2.38075)
(5.74684 3.30651e-22 -1.88342)
(4.47333 2.93944e-22 -1.44076)
(3.39242 7.69232e-20 -1.05248)
(2.47828 7.60165e-20 -0.714735)
(1.70851 0 -0.424172)
(1.06304 -1.46953e-19 -0.176281)
(0.525207 -1.44142e-19 0.0334978)
(0.0798221 0 0.208782)
(-0.285844 -2.28548e-22 0.353955)
(-0.582867 2.11788e-22 0.472459)
(-0.821253 -1.29503e-19 0.567546)
(-1.00926 0 0.642503)
(-1.15445 0 0.699712)
(-1.26301 2.34938e-19 0.741851)
(-1.34039 2.02834e-22 0.772581)
(-1.3929 4.37916e-19 0.790049)
(-1.42364 0 0.796893)
(-1.43718 4.06658e-19 0.795325)
(-1.43528 0 0.788998)
(-1.42147 0 0.777759)
(-1.39844 -1.80918e-19 0.762772)
(-1.36804 0 0.744684)
(-1.33201 -3.33721e-19 0.724301)
(-1.29192 1.09403e-22 0.702285)
(-1.24904 3.0717e-19 0.679137)
(-1.20439 0 0.655198)
(-1.15862 7.2188e-23 0.630675)
(-1.11221 0 0.60585)
(-1.06568 0 0.580939)
(-1.01926 0 0.556031)
(-0.973276 0 0.531457)
(-0.92826 0 0.507572)
(-0.8848 4.33532e-19 0.484837)
(-0.843812 0 0.463818)
(-0.80618 0 0.445022)
(-0.772912 -3.78222e-19 0.428999)
(-0.744865 0 0.416083)
(-0.7225 -3.44704e-19 0.406366)
(-0.705853 -3.28987e-19 0.399634)
(-0.694096 6.27778e-19 0.395051)
(-0.685293 0 0.390924)
(-0.676155 -5.71485e-19 0.384528)
(-0.66134 -5.4493e-19 0.372396)
(-0.633183 0 0.349582)
(-0.582162 0 0.310323)
(-0.497203 0 0.248502)
(-0.368661 4.50281e-19 0.159699)
(-0.18957 0 0.0419975)
(0.03845 0 -0.100428)
(0.307226 7.75775e-19 -0.260305)
(0.595144 -1.47258e-18 -0.422532)
(0.873498 0 -0.56989)
(1.10428 0 -0.681036)
(1.25699 0 -0.741459)
(1.30102 0 -0.736907)
(1.22712 -5.60182e-19 -0.666747)
(1.03952 1.06142e-18 -0.538436)
(0.758337 0 -0.365213)
(0.418366 0 -0.164943)
(0.0509837 -8.997e-19 0.0477225)
(-0.318286 0 0.258621)
(-0.658503 -7.94785e-19 0.44841)
(-0.933304 7.45358e-19 0.5987)
(-1.17284 0 0.726327)
(-1.33989 0 0.796492)
(-1.35928 0 0.777577)
(-1.25098 0 0.685365)
(-1.02058 0 0.53847)
(-0.80605 1.08237e-18 0.416285)
(-0.638674 0 0.330144)
(-0.570267 1.9505e-18 0.327392)
(-0.804369 0 0.53734)
(-1.56274 2.16717e-22 1.06671)
(-2.82856 3.84046e-22 1.886)
(-4.52641 0 2.92359)
(-6.38536 1.42653e-18 4.0187)
(-8.21556 0 4.97322)
(-8.61348 0 4.8701)
(-6.51109 -2.93115e-18 3.24157)
(-3.02828 0 0.565212)
(6.56225 0 -4.14268)
(1.62682 0 -0.724321)
(1.85871 0 -2.56434)
(17.8767 0 -10.8071)
(12.6969 0 -6.07524)
(6.3888 0 -3.02913)
(2.68051 0 -1.15393)
(0.267597 1.50768e-18 0.0999192)
(-1.28895 0 0.812387)
(-0.37184 0 -0.168066)
(3.99068 0 -2.57673)
(3.41058 -2.26109e-18 -1.97461)
(4.44062 -2.1171e-18 -2.74812)
(5.47788 -1.87389e-18 -3.09337)
(2.31773 1.63672e-18 -0.767261)
(-4.5215 4.25407e-21 3.50414)
(-11.4601 -9.51196e-19 7.37762)
(-14.1353 -1.50314e-18 8.49153)
(-14.3973 0 8.35644)
(-13.9442 1.37697e-18 7.91195)
(-11.9543 1.54863e-18 6.32288)
(-5.82457 0 2.51827)
(-0.376712 1.33638e-18 -0.469888)
(3.40973 1.15934e-18 -2.44204)
(7.12141 1.0191e-18 -4.24284)
(33.873 0 -2.57042)
(34.029 1.78102e-20 -2.7195)
(34.279 0 -3.00111)
(34.3718 0 -3.49705)
(34.025 2.59435e-20 -4.16552)
(33.0667 2.54153e-20 -4.87185)
(31.4604 -2.61914e-20 -5.46665)
(29.2816 8.47134e-20 -5.84245)
(26.6784 0 -5.95508)
(23.8287 3.20518e-20 -5.81717)
(20.9052 -6.64139e-20 -5.47704)
(18.0504 0 -4.99653)
(15.3652 7.06316e-20 -4.43493)
(12.9088 0 -3.84124)
(10.7073 7.26451e-20 -3.25054)
(8.76331 7.32066e-20 -2.68705)
(7.06552 7.29843e-20 -2.16434)
(5.59515 -7.24099e-20 -1.69016)
(4.33043 -1.42901e-19 -1.26655)
(3.24945 0 -0.893452)
(2.33078 1.38331e-19 -0.56858)
(1.55496 0 -0.288555)
(0.904008 0 -0.0499876)
(0.361899 -1.28843e-19 0.151391)
(-0.0857505 2.50455e-19 0.319158)
(-0.451766 0 0.457109)
(-0.747331 0 0.568845)
(-0.982409 0 0.657629)
(-1.16573 -2.20678e-19 0.72639)
(-1.30516 2.13391e-19 0.77784)
(-1.40691 -1.77958e-22 0.81562)
(-1.478 1.98376e-19 0.83994)
(-1.5231 -3.8235e-19 0.851976)
(-1.54738 1.83969e-19 0.85276)
(-1.55305 -1.76957e-19 0.848862)
(-1.54452 8.43226e-23 0.839371)
(-1.52456 0 0.825182)
(-1.49554 3.13868e-19 0.807442)
(-1.45964 3.01173e-19 0.787013)
(-1.41868 -2.88851e-19 0.764565)
(-1.37412 0 0.740567)
(-1.32697 2.65319e-19 0.715331)
(-1.278 2.5406e-19 0.689269)
(-1.22801 2.43251e-19 0.6627)
(-1.17742 2.32814e-19 0.635788)
(-1.12671 0 0.608986)
(-1.07659 0 0.582751)
(-1.0278 -6.23579e-23 0.557662)
(-0.981416 0 0.534398)
(-0.9385 0 0.513553)
(-0.900226 -3.55211e-19 0.495757)
(-0.867611 3.39138e-19 0.481373)
(-0.841205 3.23738e-19 0.470469)
(-0.82107 3.5632e-23 0.462738)
(-0.806288 -5.7392e-23 0.45713)
(-0.794654 0 0.451702)
(-0.782465 0 0.44314)
(-0.763663 1.02292e-18 0.427336)
(-0.729646 0 0.398694)
(-0.669832 0 0.350694)
(-0.571975 -4.43193e-19 0.276645)
(-0.425442 0 0.171966)
(-0.222546 0 0.0350465)
(0.035196 7.65392e-19 -0.12891)
(0.339193 -7.27464e-19 -0.311515)
(0.666409 1.38086e-18 -0.495671)
(0.985953 0 -0.662512)
(1.256 -6.19493e-19 -0.788523)
(1.44199 0 -0.857668)
(1.50735 0 -0.853627)
(1.43797 1.04994e-18 -0.774097)
(1.23358 0 -0.626155)
(0.91256 0 -0.423206)
(0.511442 0 -0.184255)
(0.069474 0 0.0719689)
(-0.373398 0 0.322719)
(-0.770511 7.44263e-19 0.539855)
(-1.07878 1.72328e-22 0.703813)
(-1.33707 -6.55405e-19 0.83692)
(-1.50886 6.17777e-19 0.900032)
(-1.51551 0 0.863573)
(-1.3863 0 0.748796)
(-1.12671 0 0.581691)
(-0.899253 0 0.45525)
(-0.742775 0 0.381453)
(-0.710198 -1.31868e-23 0.413119)
(-1.01995 0 0.696119)
(-1.92029 -8.05009e-19 1.34106)
(-3.36399 3.34664e-22 2.29145)
(-5.22828 0 3.44013)
(-7.19075 -1.33378e-18 4.59188)
(-9.00624 0 5.48866)
(-9.15959 1.31418e-18 5.12434)
(-6.70892 4.36731e-21 3.17991)
(-3.02587 0 0.176842)
(6.75063 0 -4.40115)
(2.18316 0 -0.884626)
(0.747638 0 -2.38188)
(18.5658 2.18175e-18 -11.5309)
(14.6311 0 -6.85402)
(7.97354 0 -3.67015)
(3.385 1.44395e-18 -1.37043)
(0.399313 0 0.132323)
(-1.33543 -1.24795e-18 0.859766)
(-0.382067 1.21623e-18 -0.300208)
(4.43622 0 -2.93507)
(3.94495 4.22441e-18 -2.2853)
(4.93098 -8.91679e-22 -3.07693)
(5.6976 3.50177e-18 -3.15414)
(1.70952 -1.52821e-18 -0.164195)
(-6.19215 -1.21507e-18 4.79545)
(-13.3591 8.8806e-19 8.68599)
(-15.3605 7.01916e-19 9.24941)
(-15.3471 6.27442e-19 8.88899)
(-14.6931 -1.28543e-18 8.28647)
(-12.4763 -1.44563e-18 6.43247)
(-6.0626 -1.47505e-18 2.3899)
(-0.370107 -1.24841e-18 -0.6679)
(2.96172 0 -2.35098)
(7.46699 0 -4.5212)
(33.6528 0 -2.66387)
(33.7293 1.93118e-20 -2.82565)
(33.8956 0 -3.05069)
(34.052 0 -3.39341)
(34.04 0 -3.86951)
(33.7049 0 -4.43611)
(32.9316 2.90458e-20 -5.00732)
(31.6671 -2.74139e-20 -5.48838)
(29.9236 2.95281e-20 -5.80615)
(27.7692 -5.98248e-20 -5.92339)
(25.3099 6.24321e-20 -5.8378)
(22.6698 0 -5.57328)
(19.9721 -6.63967e-20 -5.16866)
(17.3241 0 -4.66828)
(14.8083 -6.8294e-20 -4.11374)
(12.4796 -6.82007e-20 -3.54072)
(10.3676 0 -2.97593)
(8.48248 0 -2.43852)
(6.82083 6.70791e-20 -1.94007)
(5.37142 0 -1.48725)
(4.11823 0 -1.08266)
(3.04349 -1.26792e-19 -0.726081)
(2.12887 0 -0.415934)
(1.35653 0 -0.149186)
(0.709653 -1.17643e-19 0.0774315)
(0.172649 0 0.267651)
(-0.268637 0 0.425193)
(-0.627017 0 0.553744)
(-0.913917 4.1471e-19 0.656669)
(-1.13965 0 0.737489)
(-1.31341 -1.56626e-22 0.798674)
(-1.44249 -1.41028e-22 0.84394)
(-1.53491 1.79615e-19 0.875943)
(-1.59664 -1.72897e-19 0.893186)
(-1.63314 3.32505e-19 0.897923)
(-1.6487 1.5984e-19 0.896534)
(-1.64688 0 0.889042)
(-1.6313 0 0.876272)
(-1.60494 2.82753e-19 0.859482)
(-1.57032 -2.71181e-19 0.839513)
(-1.52952 0 0.816997)
(-1.48402 0 0.79237)
(-1.43499 -5.99444e-23 0.76621)
(-1.3836 -2.2845e-19 0.738965)
(-1.33053 -2.18631e-19 0.710891)
(-1.27649 -4.18226e-19 0.682585)
(-1.22239 0 0.654629)
(-1.16915 -6.15268e-23 0.627733)
(-1.11806 0 0.602697)
(-1.07035 0 0.580207)
(-1.02737 3.33394e-19 0.560977)
(-0.990326 -3.18278e-19 0.545387)
(-0.959859 0 0.533473)
(-0.93608 2.89851e-19 0.52482)
(-0.918013 -5.89099e-23 0.518147)
(-0.903246 0 0.511119)
(-0.887569 0 0.500123)
(-0.864419 -9.59285e-19 0.480264)
(-0.824398 0 0.44525)
(-0.756017 0 0.387964)
(-0.646075 8.31036e-19 0.301289)
(-0.483145 0 0.180659)
(-0.25891 0 0.0249252)
(0.0253422 -1.43477e-18 -0.159602)
(0.360931 6.81803e-19 -0.363482)
(0.724104 -6.47015e-19 -0.567836)
(1.08262 0 -0.75252)
(1.39175 5.80415e-19 -0.892248)
(1.61335 0 -0.969734)
(1.705 -5.19462e-19 -0.966823)
(1.64689 -4.91698e-19 -0.878845)
(1.43266 0 -0.71228)
(1.07719 0 -0.480075)
(0.617291 8.35767e-19 -0.201972)
(0.100247 7.89483e-19 0.0985813)
(-0.417193 0 0.388473)
(-0.8702 0 0.63)
(-1.20924 -1.3068e-18 0.803883)
(-1.48265 6.13324e-19 0.938784)
(-1.65626 -1.15604e-18 0.991286)
(-1.65045 0 0.934865)
(-1.50285 0 0.798535)
(-1.21965 0 0.614673)
(-0.987731 0 0.49069)
(-0.853903 0 0.438288)
(-0.869855 -9.65634e-24 0.515188)
(-1.26365 0 0.880906)
(-2.30311 0 1.64505)
(-3.90226 2.74609e-22 2.71572)
(-5.88569 0 3.94688)
(-7.88557 -1.24431e-18 5.11023)