/*--------------------------------*- C++ -*----------------------------------*\
| =========                 |                                                 |
| \\      /  F ield         | OpenFOAM: The Open Source CFD Toolbox           |
|  \\    /   O peration     | Version:  2412                                  |
|   \\  /    A nd           | Website:  www.openfoam.com                      |
|    \\/     M anipulation  |                                                 |
\*---------------------------------------------------------------------------*/
FoamFile
{
    version     2.0;
    format      ascii;
    arch        "LSB;label=32;scalar=64";
    class       surfaceScalarField;
    location    "0.58";
    object      phi;
}
// * * * * * * * * * * * * * * * * * * * * * * * * * * * * * * * * * * * * * //

dimensions      [0 3 -1 0 0 0 0];

oriented        oriented;

internalField   nonuniform List<scalar> 
24930
(
0.0179699
0.0127557
-0.0307257
0.010606
0.00736386
0.00695538
0.00365066
0.00517918
0.0017762
0.00420699
0.000972189
0.00358398
0.000623009
0.00313798
0.000446
0.00279839
0.000339587
0.00252914
0.000269245
0.00230917
0.00021997
0.00212532
0.000183852
0.00196885
0.000156465
0.00183372
0.000135131
0.00171558
0.000118142
0.00161121
0.000104366
0.00151819
9.30172e-05
0.00143465
8.35418e-05
0.00135911
7.5537e-05
0.00129041
6.87041e-05
0.00122759
6.28181e-05
0.00116988
5.77062e-05
0.00111665
5.3234e-05
0.00106735
4.92956e-05
0.00102155
4.58068e-05
0.00097885
4.26993e-05
0.000938932
3.99179e-05
0.000901516
3.74172e-05
0.000866357
3.51596e-05
0.000833244
3.31138e-05
0.000801992
3.12534e-05
0.000772437
2.95563e-05
0.000744435
2.80033e-05
0.000717857
2.65788e-05
0.000692589
2.52685e-05
0.000668529
2.40611e-05
0.000645584
2.29455e-05
0.000623671
2.19137e-05
0.000602714
2.09566e-05
0.000582645
2.00689e-05
0.000563403
1.92427e-05
0.000544927
1.84751e-05
0.000527169
1.77582e-05
0.000510076
1.7092e-05
0.000493608
1.64675e-05
0.00047772
1.5888e-05
0.000462377
1.53425e-05
0.000447538
1.48382e-05
0.000433177
1.43608e-05
0.000419254
1.39226e-05
0.000405749
1.35043e-05
0.000392623
1.31251e-05
0.000379864
1.27586e-05
0.000367431
1.24327e-05
0.000355319
1.21117e-05
0.000343483
1.1835e-05
0.000331929
1.15542e-05
0.000320605
1.13232e-05
0.000309527
1.10781e-05
0.000298636
1.08905e-05
0.000287959
1.06768e-05
0.000277429
1.05308e-05
0.000267084
1.03444e-05
0.000256846
1.02385e-05
0.000246771
1.00754e-05
0.000236762
1.0009e-05
0.000226897
9.86493e-06
0.00021706
9.83742e-06
0.000207352
9.70793e-06
0.000197633
9.7186e-06
0.000188034
9.59911e-06
0.000178388
9.64671e-06
0.000168855
9.53252e-06
0.000159241
9.61435e-06
0.00014974
9.50056e-06
0.000140128
9.61217e-06
0.000130633
9.49446e-06
0.000121004
9.62909e-06
0.000111498
9.50508e-06
0.000101845
9.65228e-06
9.23233e-05
9.52172e-06
8.26565e-05
9.66675e-06
7.31226e-05
9.53388e-06
6.3466e-05
9.65679e-06
5.39345e-05
9.53171e-06
4.43264e-05
9.6085e-06
3.48161e-05
9.51068e-06
2.53018e-05
9.5146e-06
1.58311e-05
9.47089e-06
6.45522e-06
9.37606e-06
-2.95333e-06
9.40834e-06
-1.21712e-05
9.21774e-06
-2.156e-05
9.38779e-06
-3.06258e-05
9.06511e-06
-4.0052e-05
9.42494e-06
-4.88679e-05
8.81485e-06
-5.82249e-05
9.35628e-06
-6.67328e-05
8.50847e-06
-7.69098e-05
1.01795e-05
-8.62544e-05
9.3458e-06
-9.9821e-05
1.35652e-05
-0.000111511
1.16844e-05
-0.000129302
1.7787e-05
-0.000144997
1.57016e-05
-0.000161475
1.64906e-05
-0.000159417
-2.06545e-06
-0.000204881
4.54569e-05
-0.000271233
6.63539e-05
-0.000168152
-0.000103091
-6.67149e-05
-0.000101471
-0.000297952
0.000231241
-0.000683514
0.000385597
-0.000749842
6.63716e-05
-0.00043079
-0.000319057
-5.83973e-05
-0.00037241
0.000200307
-0.000258717
0.000325618
-0.000125321
0.000339928
-1.4315e-05
0.000295666
4.42596e-05
0.000296796
-1.12758e-06
-0.000121567
0.0336811
0.0163175
-0.0372429
0.0277469
0.013298
0.0221959
0.00920161
0.0179227
0.00604939
0.0148771
0.00401779
0.0127169
0.0027832
0.01113
0.00203293
0.00991304
0.00155655
0.00894586
0.00123642
0.00815553
0.00101029
0.00749532
0.000844064
0.00693392
0.00071786
0.00644957
0.000619486
0.00602658
0.000541131
0.00565336
0.000477583
0.00532113
0.00042524
0.00502313
0.000381547
0.00475401
0.000344648
0.00450955
0.000313165
0.00428631
0.000286058
0.00408149
0.000262528
0.00389277
0.000241954
0.00371822
0.000223847
0.00355621
0.000207814
0.00340537
0.000193543
0.00326451
0.000180777
0.00313262
0.000169305
0.00300883
0.000158954
0.00289237
0.000149579
0.00278256
0.000141059
0.00267883
0.000133289
0.00258065
0.000126184
0.00248756
0.00011967
0.00239915
0.00011368
0.00231505
0.000108163
0.00223493
0.000103069
0.00215849
9.83575e-05
0.00208546
9.39904e-05
0.00201559
8.99398e-05
0.00194866
8.61726e-05
0.00188446
8.26711e-05
0.00182281
7.94047e-05
0.00176354
7.63656e-05
0.00170648
7.35225e-05
0.00165149
7.08777e-05
0.00159844
6.8396e-05
0.00154718
6.60919e-05
0.00149762
6.39223e-05
0.00144962
6.19162e-05
0.00140311
6.00182e-05
0.00135796
5.82762e-05
0.0013141
5.6617e-05
0.00127142
5.51123e-05
0.00122986
5.36644e-05
0.00118932
5.23757e-05
0.00114976
5.11162e-05
0.00111105
5.00269e-05
0.0010732
4.89363e-05
0.00103605
4.80335e-05
0.000999634
4.70944e-05
0.000963798
4.63673e-05
0.000928579
4.55632e-05
0.000893814
4.50034e-05
0.00085957
4.4319e-05
0.00082566
4.39199e-05
0.000792185
4.33394e-05
0.000758928
4.30951e-05
0.000726034
4.26015e-05
0.000693247
4.25063e-05
0.000660764
4.20826e-05
0.000628282
4.21282e-05
0.000596059
4.17559e-05
0.000563744
4.19294e-05
0.000531657
4.15879e-05
0.000499399
4.18698e-05
0.000467354
4.15391e-05
0.00043508
4.19028e-05
0.000403018
4.15668e-05
0.000370696
4.19738e-05
0.000338596
4.16215e-05
0.000306242
4.20201e-05
0.000274122
4.16532e-05
0.000241803
4.19758e-05
0.000209721
4.16136e-05
0.000177548
4.17814e-05
0.000145583
4.14759e-05
0.000113694
4.14033e-05
8.19315e-05
4.12339e-05
5.04708e-05
4.08369e-05
1.90152e-05
4.08642e-05
-1.19359e-05
4.01687e-05
-4.32167e-05
4.06689e-05
-7.37249e-05
3.95728e-05
-0.000104897
4.05966e-05
-0.000134606
3.8524e-05
-0.000165333
4.00822e-05
-0.000194384
3.75579e-05
-0.000227436
4.32295e-05
-0.000259669
4.158e-05
-0.000302629
5.65259e-05
-0.00034218
5.12382e-05
-0.00039743
7.30369e-05
-0.000448418
6.66853e-05
-0.000496194
6.42614e-05
-0.000496653
-1.59474e-06
-0.000649353
0.000198158
-0.000815085
0.000232078
-0.000492796
-0.000425373
-0.000251251
-0.000343005
-0.00100934
0.000989315
-0.00210827
0.00148452
-0.0022082
0.000166267
-0.00120589
-0.00132135
-6.04106e-05
-0.00151787
0.00071198
-0.0010311
0.00108076
-0.000494093
0.00111763
-5.11894e-05
0.000986481
0.000175407
0.0010325
-4.71493e-05
-0.000508741
0.0414503
0.016011
-0.0411438
0.0391629
0.0155854
0.0352356
0.0131289
0.0309515
0.0103335
0.0270386
0.0079307
0.0237511
0.0060707
0.0210778
0.0047062
0.0189099
0.00372443
0.0171329
0.00301347
0.0156541
0.00248904
0.0144048
0.00209343
0.0133345
0.00178813
0.0124064
0.00154755
0.0115931
0.00135445
0.0108737
0.00119696
0.0102323
0.00106668
0.00965625
0.000957582
0.00913568
0.000865218
0.00866259
0.00078626
0.00823047
0.000718173
0.007834
0.000659004
0.00746873
0.000607221
0.00713096
0.000561614
0.00681756
0.000521214
0.00652587
0.000485236
0.00625361
0.000453043
0.0059988
0.00042411
0.00575976
0.000398
0.00553499
0.00037435
0.0053232
0.000352854
0.00512324
0.000333254
0.00493409
0.00031533
0.00475487
0.000298897
0.00458476
0.000283791
0.00442305
0.000269876
0.00426909
0.000257029
0.0041223
0.000245149
0.00398215
0.000234139
0.00384816
0.000223926
0.0037199
0.000214431
0.00359697
0.000205602
0.003479
0.000197371
0.00336566
0.000189707
0.00325664
0.000182544
0.00315164
0.000175873
0.00305041
0.000169622
0.0029527
0.000163806
0.00285828
0.000158342
0.00276692
0.000153272
0.00267844
0.000148495
0.00259263
0.000144085
0.00250934
0.000139912
0.00242836
0.000136091
0.00234957
0.000132454
0.00227277
0.000129168
0.00219788
0.00012601
0.00212469
0.000123215
0.00205314
0.000120489
0.00198302
0.000118149
0.0019143
0.000115813
0.00184677
0.000113899
0.00178042
0.000111915
0.00171502
0.000110403
0.0016506
0.000108734
0.00158692
0.000107604
0.00152404
0.000106216
0.00146169
0.000105449
0.00139999
0.000104304
0.00133861
0.000103882
0.00127775
0.000102941
0.00121704
0.000102842
0.00115673
0.000102062
0.00109641
0.000102253
0.00103641
0.000101584
0.000976266
0.000102018
0.000916394
0.000101411
0.000856271
0.000102026
0.000796403
0.000101434
0.00073623
0.000102145
0.000676321
0.000101531
0.000616114
0.000102226
0.000556195
0.000101572
0.000496062
0.000102109
0.000436243
0.000101433
0.000376376
0.000101648
0.000316815
0.000101037
0.000257463
0.000100756
0.000198333
0.000100364
0.000139763
9.94072e-05
8.12287e-05
9.93988e-05
2.36477e-05
9.77495e-05
-3.43197e-05
9.86359e-05
-9.10335e-05
9.6286e-05
-0.000148626
9.81882e-05
-0.000203824
9.37202e-05
-0.000260439
9.66965e-05
-0.000314701
9.18188e-05
-0.000375247
0.000103775
-0.000435458
0.000101791
-0.000512644
0.000133714
-0.000585199
0.000123794
-0.000682725
0.000170562
-0.000773254
0.000157213
-0.000854384
0.00014539
-0.000864339
8.33549e-06
-0.00113827
0.000472092
-0.00138228
0.000476092
-0.000823837
-0.000983825
-0.000495417
-0.000671429
-0.00185486
0.00234876
-0.00363561
0.00326527
-0.00366609
0.000196758
-0.00189206
-0.00309539
8.09366e-05
-0.00349086
0.00138491
-0.00233508
0.0019996
-0.00110878
0.00205501
-0.000106613
0.00184127
0.000389148
0.00197175
-0.000177625
-0.0012115
0.0459125
0.0147102
-0.0446117
0.0459974
0.0155005
0.0444208
0.0147055
0.0416997
0.0130546
0.0384586
0.0111717
0.0351562
0.00937314
0.0320598
0.00780258
0.0292839
0.00650036
0.0268473
0.00545003
0.0247241
0.00461224
0.0228732
0.00394433
0.0212528
0.0034086
0.0198256
0.00297475
0.0185604
0.00261956
0.0174319
0.00232555
0.016419
0.00207958
0.0155048
0.00187178
0.0146754
0.00169462
0.0139193
0.00154231
0.0132271
0.00141039
0.0125908
0.00129531
0.0120037
0.00119428
0.0114602
0.00110508
0.0109556
0.0010259
0.0104855
0.000955257
0.0100466
0.000891953
0.00963576
0.000834986
0.00925024
0.000783523
0.00888772
0.000736868
0.00854615
0.00069443
0.0082237
0.000655711
0.00791875
0.000620284
0.00762986
0.000587787
0.00735575
0.000557904
0.00709526
0.000530368
0.00684735
0.000504938
0.00661109
0.000481414
0.00638561
0.000459611
0.00617016
0.000439379
0.00596402
0.000420568
0.00576655
0.000403072
0.00557716
0.000386762
0.0053953
0.000371567
0.00522048
0.00035737
0.00505221
0.000344135
0.00489009
0.000331743
0.0047337
0.000320197
0.00458267
0.000309363
0.00443666
0.000299289
0.00429533
0.000289815
0.00415838
0.00028104
0.00402553
0.000272763
0.00389647
0.000265146
0.00377099
0.000257933
0.00364879
0.000251363
0.0035297
0.000245103
0.00341343
0.00023949
0.00329982
0.000234091
0.00318861
0.000229364
0.00307968
0.000224745
0.00297273
0.000220841
0.00286772
0.000216929
0.00276433
0.000213798
0.00266253
0.000210527
0.00256201
0.000208126
0.0024628
0.000205429
0.00236453
0.000203718
0.00226731
0.000201527
0.00217072
0.000200468
0.00207495
0.00019871
0.00197954
0.000198256
0.00188475
0.000196853
0.00179006
0.000196937
0.00169585
0.000195795
0.00160154
0.000196329
0.0015076
0.000195349
0.00141341
0.000196218
0.00131954
0.000195306
0.00122533
0.000196354
0.00113143
0.000195422
0.00103721
0.000196449
0.00094334
0.000195442
0.000849253
0.000196196
0.000755571
0.000195115
0.000661909
0.000195311
0.00056867
0.000194277
0.000475818
0.000193608
0.000383317
0.000192865
0.000291707
0.000191018
0.000200228
0.000190878
0.000110212
0.000187766
1.98571e-05
0.00018899
-6.87306e-05
0.000184873
-0.000158288
0.000187745
-0.00024433
0.000179761
-0.000332243
0.000184609
-0.000416971
0.000176545
-0.000510596
0.0001974
-0.000604124
0.000195318
-0.000721366
0.000250956
-0.000831904
0.000234332
-0.000977375
0.000316033
-0.00111085
0.000290686
-0.00122878
0.000263321
-0.00125578
3.53483e-05
-0.00165979
0.000876102
-0.00196167
0.000777967
-0.00115749
-0.00178801
-0.000800681
-0.00102823
-0.00281977
0.00436785
-0.00522714
0.00567263
-0.0050717
4.22313e-05
-0.00244208
-0.005725
0.000406359
-0.00633929
0.00225453
-0.00418324
0.00311588
-0.00197013
0.00318853
-0.000179263
0.00290267
0.000675006
0.00315874
-0.000433698
-0.0022877
0.0493792
0.0135152
-0.0481842
0.050344
0.0145357
0.0503638
0.0146857
0.049344
0.0140745
0.047502
0.0130138
0.0451301
0.011745
0.0424998
0.0104328
0.0398175
0.00918262
0.037218
0.00804962
0.0347755
0.00705468
0.0325224
0.00619742
0.0304646
0.00546637
0.0285938
0.00484558
0.026895
0.00431839
0.0253511
0.00386945
0.0239452
0.00348545
0.0226617
0.00315527
0.0214866
0.00286976
0.0204074
0.00262149
0.0194134
0.00240438
0.0184952
0.00221352
0.0176446
0.00204487
0.0168546
0.00189513
0.0161189
0.00176158
0.0154322
0.00164197
0.0147897
0.00153441
0.0141874
0.00143734
0.0136215
0.00134942
0.0130888
0.00126954
0.0125865
0.00119675
0.012112
0.00113022
0.011663
0.00106926
0.0112375
0.00101326
0.0108337
0.000961719
0.0104499
0.000914173
0.0100846
0.000870225
0.00973651
0.00082954
0.00940432
0.000791803
0.00908694
0.000756763
0.00878334
0.000724166
0.00849258
0.000693829
0.00821381
0.000665536
0.00794621
0.000639162
0.00768907
0.000614514
0.00744168
0.000591518
0.00720344
0.000569988
0.00697373
0.000549905
0.00675202
0.00053107
0.00653778
0.000513527
0.00633055
0.000497045
0.00612985
0.000481741
0.00593528
0.000467332
0.00574639
0.000454025
0.00556286
0.000441462
0.00538427
0.000429956
0.00521032
0.000419047
0.00504063
0.000409186
0.00487494
0.000399774
0.00471288
0.000391429
0.00455424
0.000383378
0.00439865
0.000376439
0.00424595
0.000369625
0.00409575
0.000364002
0.00394796
0.000358314
0.00380216
0.00035393
0.00365833
0.000349259
0.003516
0.000346041
0.00337526
0.000342274
0.00323557
0.000340153
0.00309711
0.000337171
0.00295931
0.000336064
0.00282242
0.000333736
0.00268583
0.000333529
0.00254992
0.000331701
0.00241401
0.000332245
0.00227861
0.000330749
0.00214297
0.000331854
0.00200775
0.000330522
0.00187218
0.000331932
0.001737
0.0003306
0.00160145
0.000331992
0.00146635
0.000330544
0.00133104
0.000331511
0.00119624
0.000329909
0.00106156
0.000329997
0.000927441
0.000328392
0.000793939
0.000327111
0.000660952
0.000325851
0.000529278
0.000322692
0.000397873
0.000322283
0.000268584
0.000317055
0.000138863
0.000318711
1.2015e-05
0.000311721
-0.000116049
0.000315808
-0.000239199
0.00030291
-0.000364786
0.000310194
-0.000486056
0.000297814
-0.000619208
0.000330552
-0.000752027
0.000328137
-0.000915755
0.000414684
-0.00106953
0.000388104
-0.00126886
0.000515364
-0.00144841
0.000470236
-0.00160714
0.000422049
-0.0016587
8.69015e-05
-0.00219841
0.00141582
-0.00253594
0.00111549
-0.0014856
-0.00283836
-0.00116256
-0.00135126
-0.00387891
0.0070842
-0.00682589
0.0086196
-0.00635573
-0.000428904
-0.00279526
-0.00928546
0.00096484
-0.0100994
0.00336303
-0.00658142
0.00447047
-0.00307757
0.00456313
-0.000271927
0.00422171
0.00101642
0.00464825
-0.00086024
-0.00379748
0.0528385
0.0126167
-0.05194
0.0538675
0.0135066
0.0545523
0.0140008
0.0546228
0.014004
0.0540262
0.0136104
0.0528318
0.0129394
0.0511688
0.0120959
0.0491833
0.0111681
0.0470099
0.010223
0.0447591
0.00930549
0.0425131
0.0084435
0.0403277
0.0076517
0.0382377
0.00693559
0.0362615
0.00629457
0.0344066
0.00572442
0.032673
0.00521898
0.0310568
0.00477144
0.0295516
0.004375
0.0281498
0.00402328
0.0268436
0.00371056
0.0256254
0.00343178
0.0244877
0.00318252
0.0234239
0.00295898
0.0224275
0.00275791
0.021493
0.00257648
0.0206151
0.00241231
0.0197892
0.00226331
0.0190109
0.00212773
0.0182764
0.00200402
0.0175823
0.00189086
0.0169254
0.00178711
0.0163029
0.00169177
0.0157122
0.00160398
0.0151509
0.00152298
0.014617
0.00144811
0.0141084
0.00137878
0.0136235
0.00131449
0.0131605
0.00125478
0.012718
0.00119926
0.0122946
0.00114755
0.0118891
0.00109937
0.0115002
0.0010544
0.0111269
0.00101243
0.0107683
0.000973174
0.0104233
0.000936515
0.0100911
0.000902176
0.00977088
0.000870108
0.00946192
0.000840026
0.00916348
0.000811967
0.00887491
0.00078561
0.00859557
0.000761089
0.00832488
0.000738021
0.00806224
0.000716658
0.00780718
0.00069652
0.00755913
0.000678005
0.00731768
0.0006605
0.00708228
0.000644584
0.00685259
0.000629466
0.00662807
0.000615942
0.00640846
0.000602996
0.0061932
0.000591689
0.0059821
0.000580725
0.00577462
0.000571489
0.0055706
0.000562336
0.00536948
0.000555045
0.0051712
0.000547535
0.00497517
0.000542073
0.00478142
0.000536032
0.00458928
0.000532286
0.00439892
0.000527536
0.00420961
0.000525373
0.00402163
0.000521713
0.00383421
0.000520954
0.00364776
0.000518147
0.00346144
0.000518562
0.00327585
0.000516346
0.00309006
0.000517642
0.00290483
0.000515748
0.00271923
0.000517533
0.00253414
0.000515691
0.00234865
0.000517476
0.00216372
0.000515474
0.00197859
0.000516642
0.00179412
0.000514382
0.00160987
0.000514248
0.00142636
0.000511894
0.00124376
0.000509716
0.00106188
0.000507732
0.000881838
0.000502733
0.000702259
0.000501862
0.000525621
0.000493693
0.000348592
0.000495739
0.000175629
0.000484683
1.91923e-06
0.000489517
-0.000166213
0.000471041
-0.00033689
0.00048087
-0.000501776
0.0004627
-0.000681789
0.000510565
-0.000860578
0.000506925
-0.00107779
0.000631891
-0.00128033
0.000590645
-0.00153957
0.000774608
-0.00176804
0.000698705
-0.00197192
0.000625923
-0.00205513
0.000170122
-0.00273209
0.00209278
-0.00308253
0.00146591
-0.0017953
-0.00412559
-0.00156698
-0.00157958
-0.00499101
0.0105082
-0.00835781
0.0119864
-0.00743483
-0.0013518
-0.00288435
-0.0138359
0.00181297
-0.0147967
0.0047618
-0.00953024
0.00611427
-0.00443004
0.00623517
-0.000392823
0.005861
0.00139059
0.00650556
-0.00150481
-0.00580435
0.0565598
0.0119294
-0.0558725
0.0574138
0.0126526
0.0582111
0.0132035
0.0587388
0.0134763
0.0588749
0.0134743
0.0585735
0.0132407
0.0578441
0.0128253
0.0567344
0.0122778
0.0553128
0.0116446
0.0536546
0.0109637
0.0518331
0.010265
0.0499135
0.00957129
0.0479504
0.0088987
0.0459867
0.00825824
0.0440545
0.00765664
0.0421762
0.00709729
0.0403665
0.00658116
0.038634
0.00610746
0.036983
0.00567426
0.0354146
0.00527897
0.0339277
0.00491867
0.0325199
0.00459035
0.0311878
0.00429107
0.0299277
0.00401803
0.0287355
0.00376865
0.0276072
0.00354057
0.0265389
0.00333166
0.0255266
0.00314
0.0245668
0.00296387
0.0236559
0.00280175
0.0227907
0.00265227
0.0219683
0.00251423
0.0211857
0.00238656
0.0204404
0.0022683
0.0197299
0.00215861
0.0190519
0.00205672
0.0184045
0.00196196
0.0177855
0.00187372
0.0171933
0.00179148
0.0166261
0.00171473
0.0160824
0.00164308
0.0155607
0.00157607
0.0150597
0.00151344
0.0145781
0.00145478
0.0141147
0.00139991
0.0136684
0.00134846
0.0132382
0.00130033
0.0128231
0.00125515
0.0124221
0.00121294
0.0120344
0.00117327
0.0116592
0.0011363
0.0112957
0.00110151
0.0109432
0.00106922
0.0106009
0.0010388
0.0102681
0.00101074
0.00994438
0.000984256
0.00962891
0.00096006
0.00932123
0.000937143
0.00902066
0.000916507
0.00872681
0.000896849
0.00843899
0.000879511
0.00815688
0.000862836
0.00787979
0.000848579
0.00760749
0.000834638
0.00733926
0.000823273
0.00707497
0.000811823
0.00681387
0.000803175
0.00655593
0.000793968
0.00630035
0.000787867
0.00604724
0.000780645
0.00579572
0.000776895
0.00554607
0.000771368
0.00529732
0.000769705
0.00504993
0.000765528
0.00480288
0.000765616
0.00455682
0.000762406
0.00431064
0.000763817
0.00406522
0.00076117
0.00381942
0.000763333
0.00357427
0.000760837
0.00332871
0.000763041
0.00308383
0.00076035
0.00283877
0.000761703
0.00259453
0.000758619
0.00235065
0.000758127
0.00210774
0.000754813
0.00186606
0.000751391
0.00162537
0.000748426
0.00138717
0.000740935
0.00114968
0.000739345
0.000916177
0.0007272
0.000682405
0.000729511
0.000454218
0.000712869
0.00022469
0.000719043
4.05315e-06
0.000691677
-0.000220273
0.000705194
-0.000437007
0.000679434
-0.0006722
0.000745758
-0.000904392
0.000739117
-0.00118263
0.000910132
-0.0014397
0.00084771
-0.00176496
0.00109987
-0.00204479
0.000978536
-0.00229846
0.000879588
-0.00241893
0.000290592
-0.00323054
0.00290439
-0.00357204
0.00180741
-0.0020664
-0.00563124
-0.00198648
-0.00165948
-0.00609578
0.0146175
-0.00973029
0.0156209
-0.00821091
-0.00287124
-0.00262973
-0.0194171
0.00301874
-0.0204451
0.00651439
-0.0130259
0.00811075
-0.00602639
0.00827427
-0.000556348
0.00789662
0.00176824
0.00880811
-0.00241631
-0.00837244
0.0605663
0.0113659
-0.0600028
0.0612511
0.0119678
0.0619663
0.0124883
0.0625891
0.0128535
0.063022
0.0130414
0.0632011
0.0130617
0.0630909
0.0129355
0.0626808
0.0126878
0.0619812
0.0123442
0.0610167
0.0119282
0.0598216
0.0114602
0.0584355
0.0109574
0.0568995
0.0104346
0.0552538
0.00990401
0.053535
0.00937541
0.0517756
0.00885672
0.0500028
0.00835397
0.0482387
0.00787155
0.0465005
0.00741245
0.044801
0.0069784
0.0431495
0.00657019
0.0415521
0.0061878
0.0400125
0.00583068
0.0385326
0.00549787
0.0371131
0.00518816
0.0357535
0.00490023
0.0344525
0.00463265
0.0332085
0.004384
0.0320194
0.00415292
0.0308831
0.00393808
0.0297971
0.00373823
0.0287592
0.0035522
0.0277668
0.00337892
0.0268177
0.00321739
0.0259096
0.00306671
0.0250403
0.00292603
0.0242077
0.00279459
0.0234097
0.00267168
0.0226445
0.00255669
0.0219102
0.00244901
0.0212052
0.00234816
0.0205276
0.00225359
0.0198761
0.00216495
0.0192492
0.00208174
0.0186454
0.00200372
0.0180634
0.00193042
0.017502
0.00186172
0.01696
0.00179712
0.0164363
0.00173664
0.0159299
0.00167974
0.0154396
0.00162658
0.0149646
0.00157654
0.0145038
0.00152998
0.0140565
0.0014861
0.0136218
0.0014455
0.0131988
0.0014072
0.0127868
0.00137208
0.0123851
0.00133886
0.0119928
0.00130878
0.0116094
0.00128022
0.0112341
0.00125484
0.0108664
0.00123055
0.0105054
0.00120955
0.0101509
0.0011892
0.00980182
0.00117232
0.00945807
0.00115557
0.00911868
0.00114257
0.00878357
0.00112908
0.00845173
0.00111971
0.00812325
0.00110913
0.00779703
0.00110312
0.00747335
0.00109504
0.00715104
0.00109202
0.0068306
0.00108597
0.00651074
0.00108547
0.00619223
0.00108091
0.00587372
0.00108233
0.0055562
0.00107869
0.0052383
0.00108123
0.00492124
0.0010779
0.00460372
0.00108056
0.00428705
0.00107702
0.00397021
0.00107855
0.00365438
0.00107445
0.00333905
0.00107345
0.00302494
0.00106893
0.00271247
0.00106385
0.0024013
0.0010596
0.00209341
0.00104883
0.00178656
0.00104619
0.00148498
0.00102878
0.00118336
0.00103113
0.000889238
0.00100699
0.000593767
0.00101451
0.000310126
0.000975316
2.2667e-05
0.000992653
-0.000256023
0.000958122
-0.000555708
0.00104544
-0.000849608
0.00103302
-0.00119695
0.00125747
-0.00151451
0.00116527
-0.00191181
0.00149717
-0.00224499
0.00131172
-0.00255308
0.00118768
-0.00271421
0.00045172
-0.00365339
0.00384357
-0.0039664
0.0021204
-0.00226804
-0.00732959
-0.00237621
-0.00155129
-0.00711101
0.0193523
-0.0108325
0.0193424
-0.00857128
-0.00513252
-0.00193947
-0.0260489
0.00466319
-0.0270478
0.0086995
-0.0170622
0.0105388
-0.00786572
0.010766
-0.000783508
0.0104204
0.00211384
0.0116475
-0.00364338
-0.0115622
0.0648518
0.0108811
-0.064367
0.0654176
0.011402
0.0660258
0.0118802
0.0666112
0.0122681
0.0671112
0.0125414
0.0674773
0.0126955
0.0676743
0.0127386
0.0676781
0.012684
0.0674756
0.0125466
0.0670628
0.012341
0.0664433
0.0120797
0.0656276
0.0117731
0.0646314
0.0114308
0.0634746
0.0110608
0.0621799
0.0106702
0.0607712
0.0102654
0.0592728
0.00985236
0.0577081
0.00943625
0.0560988
0.00902177
0.0544642
0.00861294
0.0528213
0.00821312
0.0511841
0.00782498
0.0495642
0.00745055
0.0479708
0.00709127
0.046411
0.00674804
0.0448898
0.00642135
0.0434112
0.0061113
0.0419775
0.00581774
0.0405901
0.00554029
0.0392497
0.00527845
0.0379564
0.00503158
0.0367096
0.004799
0.0355085
0.00458002
0.034352
0.0043739
0.0332388
0.00417993
0.0321674
0.00399739
0.0311364
0.00382564
0.0301441
0.00366399
0.0291889
0.00351187
0.0282692
0.00336866
0.0273835
0.00323387
0.0265302
0.00310693
0.0257077
0.00298746
0.0249145
0.0028749
0.0241492
0.00276899
0.0234105
0.00266918
0.0226968
0.00257535
0.0220071
0.0024869
0.0213398
0.00240386
0.020694
0.00232556
0.0200684
0.00225224
0.0194618
0.00218309
0.0188732
0.00211858
0.0183016
0.00205771
0.0177458
0.00200124
0.0172051
0.00194793
0.0166783
0.00189887
0.0161647
0.00185248
0.0156632
0.00181029
0.0151731
0.00177027
0.0146935
0.0017345
0.0142236
0.00170037
0.0137626
0.0016706
0.0133099
0.00164191
0.0128644
0.00161782
0.0124258
0.00159414
0.011993
0.00157538
0.0115658
0.00155626
0.011143
0.00154252
0.0107247
0.0015275
0.0103094
0.00151841
0.00989746
0.00150694
0.00948747
0.00150201
0.00907996
0.00149347
0.00867337
0.00149207
0.00826855
0.00148573
0.00786386
0.00148703
0.00746045
0.00148209
0.00705667
0.00148501
0.00665392
0.00148064
0.00625065
0.00148382
0.00584841
0.00147926
0.00544598
0.00148098
0.00504474
0.00147568
0.00464418
0.00147401
0.00424508
0.00146803
0.00384811
0.00146082
0.00345278
0.00145494
0.00306168
0.00143993
0.00267203
0.00143583
0.00228921
0.0014116
0.00190671
0.00141363
0.00153409
0.00137961
0.00116027
0.00138833
0.000801778
0.0013338
0.000437864
0.00135656
8.78897e-05
0.0013081
-0.000286395
0.00141973
-0.00065152
0.00139814
-0.00107643
0.00168238
-0.00146066
0.0015495
-0.00193578
0.00197229
-0.00232375
0.00169969
-0.00269047
0.00155439
-0.00289246
0.000653705
-0.00394797
0.00489909
-0.00421584
0.00238826
-0.00235453
-0.00919091
-0.00266995
-0.00123586
-0.00793029
0.0246127
-0.0115359
0.022948
-0.0083883
-0.00828015
-0.000706121
-0.0337311
0.00684396
-0.0345979
0.0114145
-0.0216327
0.0134961
-0.00994733
0.0138143
-0.0011017
0.0135422
0.00238592
0.0151318
-0.00523298
-0.0154275
0.0694252
0.0104533
-0.0689974
0.069909
0.0109181
0.07043
0.0113592
0.0709524
0.0117457
0.0714365
0.0120572
0.0718486
0.0122834
0.0721627
0.0124245
0.0723594
0.0124873
0.0724246
0.0124814
0.0723484
0.0124172
0.0721239
0.0123042
0.0717473
0.0121497
0.071218
0.0119601
0.0705384
0.0117404
0.0697138
0.0114947
0.0687528
0.0112264
0.0676665
0.0109387
0.0664682
0.0106346
0.0651728
0.0103172
0.063796
0.00998968
0.0623539
0.0096552
0.0608621
0.00931682
0.0593352
0.00897748
0.0577866
0.00863983
0.0562284
0.00830624
0.054671
0.00797875
0.0531233
0.00765902
0.0515926
0.00734839
0.0500851
0.00704785
0.0486054
0.00675813
0.0471573
0.00647968
0.0457436
0.00621275
0.0443661
0.00595745
0.0430263
0.00571369
0.0417249
0.00548134
0.0404622
0.00526013
0.0392381
0.00504977
0.0380522
0.00484989
0.0369039
0.00466014
0.0357925
0.00448008
0.034717
0.00430938
0.0336763
0.00414756
0.0326694
0.00399434
0.0316952
0.00384918
0.0307522
0.0037119
0.0298395
0.00358193
0.0289556
0.0034592
0.0280995
0.00334306
0.0272697
0.00323361
0.0264652
0.00313008
0.0256846
0.00303279
0.0249269
0.00294079
0.0241909
0.00285467
0.0234753
0.00277325
0.0227791
0.00269746
0.0221012
0.0026258
0.0214405
0.00255962
0.020796
0.00249698
0.0201665
0.00243979
0.0195512
0.00238554
0.0189489
0.00233678
0.018359
0.00229033
0.01778
0.00224953
0.0172116
0.00221034
0.0166523
0.00217709
0.0161018
0.00214462
0.0155587
0.0021185
0.0150228
0.0020922
0.0144925
0.00207283
0.0139679
0.00205211
0.0134473
0.002039
0.012931
0.00202317
0.0124174
0.0020157
0.0119069
0.00200395
0.0113977
0.00200128
0.0108907
0.00199265
0.0103841
0.00199372
0.00987898
0.00198716
0.00937348
0.00199052
0.00886923
0.0019849
0.00836433
0.00198872
0.00786062
0.00198297
0.00735663
0.00198497
0.00685403
0.00197828
0.00635223
0.00197582
0.00585214
0.00196811
0.0053547
0.00195827
0.00485926
0.00195038
0.00436916
0.00193002
0.003881
0.001924
0.00340156
0.00189104
0.00292292
0.00189227
0.0024571
0.00184544
0.0019904
0.00185503
0.00154331
0.00178089
0.00108995
0.00180992
0.000656271
0.00174178
0.000194908
0.00188109
-0.000252051
0.0018451
-0.000762815
0.00219314
-0.00122034
0.00200703
-0.00177854
0.00253048
-0.00222214
0.00214329
-0.0026506
0.00198285
-0.00288978
0.000892888
-0.00404649
0.0060558
-0.00425518
0.00259693
-0.00226035
-0.0111857
-0.00277641
-0.000719503
-0.00842114
0.0302574
-0.0116947
0.0262216
-0.00751916
-0.0124557
0.0011992
-0.0424494
0.00967875
-0.0430774
0.0147792
-0.0267331
0.0171023
-0.0122705
0.0175445
-0.00154387
0.0173926
0.00253781
0.0193889
-0.00722928
-0.0200117
0.074306
0.0100702
-0.0739228
0.0747306
0.0104935
0.0751856
0.0109042
0.0756503
0.011281
0.0760987
0.0116087
0.0765064
0.0118757
0.0768535
0.0120774
0.0771254
0.0122154
0.0773118
0.0122951
0.0774052
0.0123238
0.0774001
0.0123093
0.0772913
0.0122586
0.0770744
0.012177
0.0767456
0.0120691
0.0763019
0.0119384
0.0757414
0.011787
0.0750637
0.0116163
0.0742707
0.0114276
0.0733663
0.0112216
0.0723564
0.0109996
0.0712489
0.0107627
0.0700533
0.0105124
0.0687802
0.0102506
0.067441
0.00997911
0.066047
0.00970015
0.0646099
0.00941585
0.0631406
0.00912834
0.0616494
0.00883966
0.0601455
0.00855169
0.0586375
0.00826613
0.0571328
0.00798445
0.0556376
0.00770791
0.0541575
0.00743757
0.0526969
0.00717426
0.0512596
0.00691866
0.0498485
0.00667124
0.0484659
0.00643238
0.0471135
0.00620226
0.0457926
0.00598104
0.044504
0.0057687
0.0432481
0.00556528
0.0420251
0.00537057
0.0408348
0.00518459
0.0396771
0.00500697
0.0385512
0.00483776
0.0374567
0.00467646
0.0363927
0.00452319
0.0353584
0.00437732
0.0343529
0.00423912
0.0333752
0.00410775
0.0324243
0.00398372
0.0314991
0.00386596
0.0305985
0.00375526
0.0297215
0.00365024
0.0288669
0.00355211
0.0280336
0.00345905
0.0272205
0.0033728
0.0264265
0.00329098
0.0256503
0.00321597
0.0248911
0.00314472
0.0241475
0.0030804
0.0234187
0.00301909
0.0227033
0.00296494
0.0220007
0.00291298
0.0213092
0.00286855
0.0206285
0.00282532
0.0199568
0.00279015
0.019294
0.002755
0.0186382
0.00272864
0.0179895
0.00270086
0.0173458
0.00268273
0.0167074
0.00266148
0.0160723
0.00265081
0.0154412
0.00263507
0.0148117
0.00263081
0.014185
0.00261938
0.0135585
0.00262015
0.012934
0.00261166
0.0123089
0.0026156
0.0116853
0.00260856
0.0110607
0.00261328
0.0104374
0.00260624
0.0098137
0.00260871
0.00919145
0.00260053
0.00857003
0.00259724
0.00795054
0.0025876
0.0073342
0.00257461
0.00672023
0.00256435
0.00611283
0.00253742
0.0055079
0.00252893
0.00491394
0.002485
0.0043214
0.00248481
0.00374523
0.0024216
0.00316873
0.00243154
0.00261705
0.00233257
0.00205859
0.00236838
0.00152683
0.00227354
0.000963463
0.00244446
0.00042617
0.00238239
-0.00017938
0.00279869
-0.000718651
0.0025463
-0.00136404
0.00317587
-0.0018636
0.00264285
-0.00235488
0.00247413
-0.00262319
0.0011612
-0.00386253
0.00729514
-0.0039987
0.00273309
-0.00189476
-0.0132897
-0.00257657
-3.52036e-05
-0.00842361
0.0361045