/*--------------------------------*- C++ -*----------------------------------*\
| =========                 |                                                 |
| \\      /  F ield         | OpenFOAM: The Open Source CFD Toolbox           |
|  \\    /   O peration     | Version:  2412                                  |
|   \\  /    A nd           | Website:  www.openfoam.com                      |
|    \\/     M anipulation  |                                                 |
\*---------------------------------------------------------------------------*/
FoamFile
{
    version     2.0;
    format      ascii;
    arch        "LSB;label=32;scalar=64";
    class       surfaceScalarField;
    location    "0.54";
    object      phi;
}
// * * * * * * * * * * * * * * * * * * * * * * * * * * * * * * * * * * * * * //

dimensions      [0 3 -1 0 0 0 0];

oriented        oriented;

internalField   nonuniform List<scalar> 
24930
(
0.0179706
0.0127551
-0.030726
0.0106068
0.0073638
0.00695604
0.00365072
0.00517978
0.00177626
0.00420755
0.00097223
0.00358451
0.000623038
0.00313849
0.00044602
0.00279889
0.000339604
0.00252964
0.000269258
0.00230965
0.000219981
0.00212579
0.000183862
0.00196932
0.000156474
0.00183418
0.000135139
0.00171603
0.00011815
0.00161166
0.000104372
0.00151864
9.30215e-05
0.0014351
8.35452e-05
0.00135956
7.55399e-05
0.00129085
6.87067e-05
0.00122803
6.28201e-05
0.00117032
5.77075e-05
0.00111709
5.32349e-05
0.00106779
4.92963e-05
0.00102199
4.58069e-05
0.00097929
4.26987e-05
0.000939374
3.99163e-05
0.00090196
3.74147e-05
0.000866803
3.51563e-05
0.000833694
3.31098e-05
0.000802445
3.12487e-05
0.000772895
2.95508e-05
0.000744898
2.79972e-05
0.000718326
2.65721e-05
0.000693065
2.52614e-05
0.000669012
2.40533e-05
0.000646075
2.29371e-05
0.000624171
2.19043e-05
0.000603224
2.09466e-05
0.000583166
2.0058e-05
0.000563935
1.92314e-05
0.000545472
1.84629e-05
0.000527726
1.77457e-05
0.000510648
1.70784e-05
0.000494194
1.64536e-05
0.000478322
1.58724e-05
0.000462996
1.53265e-05
0.000448176
1.482e-05
0.000433834
1.43423e-05
0.000419932
1.39013e-05
0.000406449
1.3483e-05
0.000393348
1.31004e-05
0.000380614
1.27342e-05
0.00036821
1.24044e-05
0.000356126
1.2084e-05
0.000344324
1.18025e-05
0.000332801
1.15223e-05
0.000321515
1.12858e-05
0.000310474
1.1041e-05
0.000299626
1.08474e-05
0.000288992
1.06338e-05
0.00027851
1.04816e-05
0.000268215
1.02948e-05
0.000258032
1.01832e-05
0.000248014
1.00181e-05
0.000238067
9.94712e-06
0.000228269
9.79809e-06
0.000218501
9.76831e-06
0.000208871
9.62938e-06
0.000199228
9.64246e-06
0.000189721
9.50649e-06
0.000180156
9.56471e-06
0.000170732
9.42307e-06
0.000161203
9.52886e-06
0.000151832
9.37091e-06
0.000142307
9.52555e-06
0.000132968
9.33924e-06
0.000123422
9.54554e-06
0.000114106
9.31657e-06
0.000104529
9.57607e-06
9.52389e-05
9.28996e-06
8.56343e-05
9.60389e-06
7.63863e-05
9.24778e-06
6.67689e-05
9.61741e-06
5.75897e-05
9.17889e-06
4.79835e-05
9.60598e-06
3.89024e-05
9.08087e-06
2.93363e-05
9.56616e-06
2.03777e-05
8.95911e-06
1.08879e-05
9.48973e-06
2.01505e-06
8.87228e-06
-7.32288e-06
9.33728e-06
-1.60181e-05
8.6948e-06
-2.54765e-05
9.45824e-06
-3.43562e-05
8.87968e-06
-4.44903e-05
1.01336e-05
-5.43269e-05
9.83614e-06
-6.52285e-05
1.09013e-05
-7.60791e-05
1.08505e-05
-8.76673e-05
1.15884e-05
-9.98548e-05
1.21875e-05
-0.000110503
1.06474e-05
-0.000123305
1.28019e-05
-0.000132228
8.92403e-06
-0.00015164
1.94118e-05
-0.000179673
2.80311e-05
-0.000165664
-1.40079e-05
-0.000102645
-6.30196e-05
-0.000183847
8.11979e-05
-0.00044808
0.000264235
-0.000612407
0.000164332
-0.000509674
-0.000102727
-0.000244281
-0.000265395
2.70823e-05
-0.000271363
0.000180313
-0.00015323
0.000245478
-6.51671e-05
0.000234379
1.10966e-05
0.000212044
2.23359e-05
0.000238055
-2.60109e-05
0.000335779
-9.77248e-05
-0.000163879
0.033682
0.0163165
-0.0372433
0.0277482
0.0132976
0.0221974
0.00920147
0.0179243
0.00604939
0.0148787
0.00401784
0.0127185
0.00278326
0.0111315
0.00203299
0.00991453
0.00155659
0.00894733
0.00123646
0.00815699
0.00101032
0.00749676
0.000844093
0.00693535
0.000717887
0.00645098
0.00061951
0.00602798
0.000541151
0.00565476
0.000477599
0.00532253
0.000425253
0.00502451
0.000381557
0.0047554
0.000344656
0.00451094
0.000313171
0.0042877
0.000286062
0.00408287
0.000262531
0.00389415
0.000241955
0.00371961
0.000223845
0.0035576
0.00020781
0.00340677
0.000193536
0.00326592
0.000180767
0.00313404
0.000169293
0.00301026
0.000158939
0.00289381
0.000149561
0.00278402
0.000141038
0.0026803
0.000133266
0.00258214
0.000126158
0.00248908
0.000119641
0.00240069
0.00011365
0.00231661
0.00010813
0.00223652
0.000103032
0.0021601
9.83177e-05
0.0020871
9.39481e-05
0.00201727
8.98941e-05
0.00195037
8.61247e-05
0.00188622
8.26195e-05
0.00182461
7.93509e-05
0.00176538
7.63068e-05
0.00170838
7.3461e-05
0.00165344
7.08097e-05
0.00160044
6.83253e-05
0.00154925
6.60132e-05
0.00149975
6.38409e-05
0.00145182
6.18252e-05
0.00140538
5.99249e-05
0.00136031
5.81716e-05
0.00131653
5.65103e-05
0.00127395
5.49921e-05
0.00123249
5.35422e-05
0.00119205
5.22375e-05
0.0011526
5.09756e-05
0.00111402
4.98681e-05
0.00107628
4.87742e-05
0.00103928
4.78512e-05
0.001003
4.69069e-05
0.000967327
4.61588e-05
0.000932275
4.53471e-05
0.000897691
4.47669e-05
0.000863639
4.40696e-05
0.000829934
4.36526e-05
0.000796682
4.30498e-05
0.000763656
4.2794e-05
0.000731019
4.22651e-05
0.00069849
4.21712e-05
0.000666304
4.16918e-05
0.000634107
4.17605e-05
0.000602229
4.13009e-05
0.000570225
4.15328e-05
0.000538539
4.10567e-05
0.000506615
4.14492e-05
0.000475038
4.09159e-05
0.000443115
4.1468e-05
0.000411603
4.08282e-05
0.000379644
4.15343e-05
0.000348195
4.07386e-05
0.000316209
4.1589e-05
0.000284867
4.05899e-05
0.000252909
4.15754e-05
0.000221752
4.03355e-05
0.000189908
4.14497e-05
0.000159028
3.99599e-05
0.000127405
4.11888e-05
9.68932e-05
3.94708e-05
6.55938e-05
4.07887e-05
3.55042e-05
3.89613e-05
4.91193e-06
3.9929e-05
-2.50354e-05
3.86418e-05
-5.59033e-05
4.03254e-05
-8.63639e-05
3.93402e-05
-0.0001192
4.2969e-05
-0.000152417
4.30516e-05
-0.000187413
4.58978e-05
-0.000223405
4.68418e-05
-0.000260539
4.87218e-05
-0.000299732
5.13797e-05
-0.000334022
4.49379e-05
-0.000374872
5.3652e-05
-0.000403668
3.77195e-05
-0.000468583
8.43269e-05
-0.000546449
0.000105895
-0.000494663
-6.57948e-05
-0.000329294
-0.000228387
-0.000622702
0.000374608
-0.00140689
0.00104842
-0.00184283
0.000600272
-0.00147522
-0.000470335
-0.000637489
-0.00110312
0.00017732
-0.00108617
0.000641004
-0.000616914
0.000825034
-0.000249198
0.000795282
4.08464e-05
0.000747676
6.9941e-05
0.000847676
-0.00012601
0.001179
-0.000429049
-0.000675954
0.0414512
0.0160096
-0.0411443
0.0391643
0.0155845
0.0352374
0.0131284
0.0309536
0.0103332
0.0270409
0.00793057
0.0237534
0.00607067
0.0210802
0.00470622
0.0189124
0.00372446
0.0171353
0.00301349
0.0156566
0.00248907
0.0144072
0.00209346
0.0133369
0.00178817
0.0124089
0.00154758
0.0115955
0.00135448
0.0108761
0.00119698
0.0102347
0.0010667
0.00965867
0.000957594
0.0091381
0.000865226
0.00866501
0.000786263
0.0082329
0.000718174
0.00783643
0.000659001
0.00747117
0.000607214
0.00713342
0.000561603
0.00682003
0.000521197
0.00652835
0.000485214
0.0062561
0.000453016
0.00600132
0.000424077
0.0057623
0.00039796
0.00553756
0.000374304
0.00532579
0.000352802
0.00512586
0.000333196
0.00493676
0.000315267
0.00475757
0.000298828
0.0045875
0.000283717
0.00442584
0.000269795
0.00427193
0.000256942
0.00412519
0.000245054
0.0039851
0.000234038
0.00385118
0.000223817
0.00372299
0.000214315
0.00360013
0.000205478
0.00348224
0.00019724
0.00336898
0.000189565
0.00326005
0.000182394
0.00315515
0.000175708
0.00305403
0.000169449
0.00295642
0.000163616
0.00286212
0.000158144
0.00277089
0.000153054
0.00268255
0.000148268
0.00259689
0.000143834
0.00251374
0.000139652
0.00243293
0.000135803
0.00235432
0.000132156
0.00227772
0.000128837
0.00220303
0.000125668
0.00213006
0.000122835
0.00205874
0.000120095
0.00198887
0.000117713
0.00192042
0.000115358
0.00185318
0.0001134
0.00178714
0.00011139
0.00172207
0.000109834
0.00165801
0.000108129
0.00159471
0.000106958
0.00153224
0.000105516
0.00147031
0.000104719
0.00140908
0.000103494
0.00134819
0.000103064
0.00128788
0.000102005
0.0012277
0.000101936
0.00116802
0.00010098
0.00110829
0.00010126
0.00104902
0.000100331
0.000989523
0.000100945
0.000930483
9.9956e-05
0.000871064
0.000100886
0.00081216
9.97314e-05
0.000752743
0.00010095
0.000693958
9.95231e-05
0.000634555
0.000100991
0.000575956
9.91885e-05
0.000516664
0.000100867
0.000458389
9.86097e-05
0.00039937
0.000100469
0.000341591
9.77389e-05
0.000283048
9.97315e-05
0.00022594
9.65781e-05
0.000168059
9.86689e-05
0.000111769
9.52505e-05
5.4852e-05
9.6845e-05
-9.70648e-07
9.4464e-05
-5.75242e-05
9.68782e-05
-0.000114511
9.63272e-05
-0.000174468
0.000102925
-0.000235934
0.000104517
-0.000299227
0.000109191
-0.000365056
0.00011267
-0.000431755
0.00011542
-0.000502131
0.000121755
-0.000563609
0.000106416
-0.000636602
0.000126645
-0.00068877
8.98863e-05
-0.00080614
0.000201697
-0.000930168
0.000229922
-0.000834397
-0.000161568
-0.000586386
-0.000476395
-0.00114316
0.000931389
-0.00245645
0.0023617
-0.00311338
0.0012572
-0.00240219
-0.00118152
-0.000928091
-0.00257722
0.000454806
-0.00246906
0.00124486
-0.00140697
0.00154688
-0.000551215
0.00150188
8.58362e-05
0.00144956
0.000122263
0.00165387
-0.000330319
0.00226388
-0.00103906
-0.0015864
0.0459134
0.0147086
-0.0446124
0.0459986
0.0154992
0.0444225
0.0147045
0.0417018
0.0130539
0.0384611
0.0111713
0.0351589
0.00937283
0.0320628
0.00780239
0.029287
0.00650024
0.0268505
0.00544996
0.0247274
0.0046122
0.0228766
0.00394431
0.0212561
0.0034086
0.019829
0.00297476
0.0185639
0.00261957
0.0174353
0.00232555
0.0164224
0.00207958
0.0155082
0.00187177
0.0146789
0.00169461
0.0139228
0.0015423
0.0132306
0.00141037
0.0125943
0.00129528
0.0120073
0.00119426
0.0114639
0.00110505
0.0109592
0.00102586
0.0104892
0.000955206
0.0100503
0.000891893
0.0096395
0.000834916
0.00925402
0.000783443
0.00889155
0.000736776
0.00855002
0.000694327
0.00822762
0.000655597
0.00792273
0.00062016
0.0076339
0.000587653
0.00735986
0.00055776
0.00709944
0.000530212
0.00685162
0.00050477
0.00661544
0.000481234
0.00639006
0.000459418
0.0061747
0.000439172
0.00596867
0.000420348
0.00577131
0.000402835
0.00558204
0.00038651
0.00540031
0.000371295
0.00522563
0.000357082
0.00505751
0.000343822
0.00489555
0.000331412
0.00473933
0.000319836
0.00458849
0.000308985
0.00444267
0.000298875
0.00430156
0.000289382
0.00416483
0.000280564
0.00403221
0.000272266
0.00390342
0.0002646
0.00377821
0.000257363
0.00365631
0.000250736
0.00353753
0.000244448
0.00342159
0.000238771
0.00330835
0.000233337
0.00319753
0.000228537
0.00308901
0.000223874
0.00298252
0.000219893
0.00287798
0.000215926
0.0027751
0.000212717
0.00267386
0.00020937
0.00257392
0.000206895
0.00247534
0.000204092
0.00237774
0.000202322
0.00228125
0.000199984
0.00218541
0.000198898
0.00209049
0.000196932
0.00199592
0.000196506
0.00190209
0.000194802
0.00180835
0.000195004
0.00171525
0.00019343
0.00162198
0.000194216
0.00152931
0.000192619
0.00143626
0.000193942
0.00134386
0.000192132
0.00125088
0.000193922
0.0011587
0.00019171
0.00106581
0.000193873
0.000973929
0.000191073
0.000881281
0.000193516
0.000789904
0.000189986
0.000697743
0.00019263
0.000607143
0.000188339
0.000515802
0.000191073
0.000426268
0.000186111
0.000336062
0.000188874
0.000247858
0.000183453
0.000159204
0.000185499
7.21706e-05
0.000181497
-1.5719e-05
0.000184767
-0.00010507
0.000185678
-0.000197469
0.000195324
-0.000292568
0.000199615
-0.000389142
0.000205764
-0.000489942
0.00021347
-0.000590725
0.000216202
-0.000696865
0.000227895
-0.000789329
0.00019888
-0.000898894
0.000236209
-0.000978266
0.000169258
-0.00115353
0.000376963
-0.00131974
0.000396131
-0.00117701
-0.000304303
-0.000869933
-0.000783468
-0.00173538
0.00179684
-0.00357078
0.00419711
-0.00438486
0.00207127
-0.00324683
-0.00231956
-0.00107432
-0.00474972
0.000895805
-0.00443919
0.00202449
-0.00253566
0.00244637
-0.000973093
0.00239259
0.000139616
0.0023606
0.000154248
0.00270366
-0.000673377
0.00363722
-0.00197262
-0.00295191
0.0493802
0.0135136
-0.0481851
0.0503452
0.0145342
0.0503654
0.0146844
0.0493459
0.0140734
0.0475043
0.0130129
0.0451328
0.0117443
0.0425029
0.0104323
0.0398209
0.0091822
0.0372216
0.00804929
0.0347793
0.00705443
0.0325264
0.00619724
0.0304688
0.00546624
0.0285981
0.00484548
0.0268993
0.00431831
0.0253555
0.00386938
0.0239497
0.00348538
0.0226663
0.0031552
0.0214912
0.0028697
0.0204121
0.00262142
0.0194181
0.00240431
0.0184999
0.00221345
0.0176494
0.00204479
0.0168594
0.00189505
0.0161238
0.00176149
0.0154371
0.00164186
0.0147947
0.0015343
0.0141924
0.00143721
0.0136266
0.00134928
0.013094
0.00126938
0.0125918
0.00119656
0.0121173
0.00113002
0.0116685
0.00106904
0.0112431
0.00101303
0.0108394
0.000961474
0.0104557
0.000913909
0.0100905
0.000869942
0.00974249
0.000829235
0.00941043
0.000791479
0.00909319
0.000756414
0.00878974
0.000723796
0.00849915
0.00069343
0.00822055
0.000665113
0.00795314
0.000638705
0.00769619
0.000614029
0.00744902
0.000590993
0.007211
0.000569433
0.00698153
0.000549302
0.00676008
0.000530434
0.00654612
0.000512835
0.00633919
0.000496317
0.0061388
0.000480947
0.00594457
0.000466499
0.00575606
0.000453114
0.00557292
0.000440505
0.00539474
0.00042891
0.00522124
0.000417949
0.00505202
0.000407986
0.00488685
0.00039851
0.00472534
0.000390051
0.00456729
0.000381918
0.00441233
0.000374857
0.00426031
0.000367941
0.00411084
0.000362194
0.00396383
0.000356372
0.00381886
0.000351867
0.00367594
0.000347015
0.00353456
0.000343697
0.00339486
0.000339686
0.00325625
0.000337508
0.00311899
0.000334192
0.00298239
0.000333102
0.00284689
0.000330306
0.00271165
0.00033024
0.00257733
0.000327753
0.00244292
0.000328626
0.00230933
0.000326204
0.00217536
0.000327918
0.00204223
0.000325259
0.00190847
0.000327678
0.00177571
0.000324473
0.00164216
0.00032742
0.00150987
0.000323369
0.00137672
0.000326662
0.00124517
0.000321534
0.00111279
0.000325012
0.00098238
0.000318747
0.000851254
0.000322198
0.000722425
0.00031494
0.00059305
0.000318248
0.000466224
0.000310279
0.000339185
0.000312537
0.000214176
0.000306505
8.81193e-05
0.000310823
-3.95392e-05
0.000313336
-0.000170431
0.000326215
-0.000305294
0.000334477
-0.000440797
0.000341268
-0.000582261
0.000354933
-0.00072206
0.000356
-0.000868944
0.000374778
-0.000996392
0.000326329
-0.00114722
0.000387039
-0.00125762
0.000279658
-0.00149548
0.000614824
-0.00169866
0.0005993
-0.00150921
-0.000493755
-0.00117041
-0.00112226
-0.00238213
0.00300857
-0.00470982
0.00652479
-0.00560209
0.00296353
-0.00395184
-0.00396981
-0.00102443
-0.00767713
0.00154276
-0.00700637
0.00302162
-0.00401451
0.00356636
-0.00151784
0.0035148
0.000191174
0.00353394
0.000135107
0.00405314
-0.00119258
0.00535503
-0.00327451
-0.00482954
0.0528396
0.012615
-0.0519411
0.0538688
0.0135051
0.0545538
0.0139993
0.0546245
0.0140027
0.0540283
0.0136091
0.0528343
0.0129383
0.0511716
0.012095
0.0491865
0.0111673
0.0470136
0.0102223
0.0447631
0.0093049
0.0425173
0.00844302
0.0403322
0.00765131
0.0382425
0.00693526
0.0362665
0.0062943
0.0344117
0.00572417
0.0326783
0.00521877
0.0310623
0.00477124
0.0295572
0.00437481
0.0281555
0.00402311
0.0268494
0.00371039
0.0256312
0.00343161
0.0244937
0.00318235
0.0234299
0.00295881
0.0224337
0.00275772
0.0214993
0.00257629
0.0206215
0.00241209
0.0197956
0.00226308
0.0190174
0.00212747
0.018283
0.00200374
0.017589
0.00189056
0.0169323
0.00178679
0.0163099
0.00169142
0.0157193
0.00160361
0.0151582
0.00152259
0.0146244
0.00144769
0.014116
0.00137834
0.0136312
0.00131402
0.0131684
0.00125428
0.0127261
0.00119872
0.012303
0.00114698
0.0118976
0.00109875
0.011509
0.00105374
0.011136
0.00101172
0.0107776
0.000972423
0.0104329
0.000935704
0.010101
0.000901317
0.00978113
0.000869178
0.00947252
0.000839043
0.00917446
0.0008109
0.00888629
0.000784485
0.00860737
0.000759867
0.00833713
0.000736733
0.00807499
0.000715255
0.00782045
0.000695042
0.00757297
0.000676396
0.00733211
0.000658804
0.00709736
0.000642738
0.00686836
0.000627513
0.00664459
0.00061382
0.00642576
0.00060074
0.00621137
0.000589253
0.00600119
0.000578122
0.00579468
0.000568701
0.00559172
0.000559332
0.00539172
0.00055186
0.00519467
0.000544065
0.00499993
0.000538446
0.00480758
0.00053203
0.00461691
0.000528182
0.00442817
0.000522929
0.00424051
0.000520762
0.0040544
0.000516411
0.00386883
0.000515811
0.00368453
0.000512048
0.00350028
0.000512873
0.00331715
0.000509335
0.00313366
0.000511415
0.00295127
0.000507646
0.0027682
0.000510749
0.00258638
0.000506283
0.00240369
0.000510112
0.00222257
0.000504492
0.00204049
0.000508735
0.00186042
0.000501605
0.00167946
0.000505975
0.00150098
0.000497223
0.00132183
0.000501353
0.00114558
0.000491184
0.000968968
0.000494862
0.000795597
0.000483649
0.000622345
0.000485788
0.000451644
0.000477205
0.000279957
0.000482509
0.000106606
0.000486686
-6.98125e-05
0.000502633
-0.000251648
0.000516312
-0.000432428
0.000522047
-0.000620938
0.000543442
-0.000805112
0.000540173
-0.000998152
0.000567817
-0.00116479
0.000492969
-0.00136175
0.000584001
-0.00150675
0.000424652
-0.00181079
0.000918864
-0.00204485
0.000833355
-0.00181222
-0.000726386
-0.00147066
-0.00146381
-0.00305429
0.00459221
-0.00581855
0.00928904
-0.00669589
0.00384086
-0.00445034
-0.00621537
-0.00071634
-0.0114111
0.00244751
-0.0101702
0.0042877
-0.0058547
0.00496011
-0.00219024
0.00492687
0.000224413
0.00503338
2.85959e-05
0.00576788
-0.00192708
0.00748182
-0.00498845
-0.00727806
0.0565611
0.0119277
-0.0558738
0.0574152
0.012651
0.0582126
0.0132019
0.0587405
0.0134748
0.0588768
0.0134728
0.0585758
0.0132394
0.0578467
0.012824
0.0567374
0.0122766
0.0553162
0.0116435
0.0536584
0.0109627
0.0518372
0.0102642
0.049918
0.00957053
0.0479552
0.00889803
0.0459919
0.00825764
0.04406
0.0076561
0.0421819
0.00709681
0.0403725
0.00658072
0.0386402
0.00610704
0.0369895
0.00567387
0.0354212
0.0052786
0.0339345
0.00491832
0.0325269
0.00459001
0.031195
0.00429073
0.029935
0.00401768
0.028743
0.0037683
0.0276149
0.0035402
0.0265467
0.00333127
0.0255346
0.00313958
0.0245749
0.00296343
0.0236642
0.00280127
0.0227992
0.00265177
0.0219769
0.0025137
0.0211945
0.00238601
0.0204494
0.00226771
0.0197391
0.00215798
0.0190614
0.00205605
0.0184142
0.00196125
0.0177955
0.00187297
0.0172035
0.00179068
0.0166366
0.00171388
0.0160932
0.00164216
0.0155718
0.00157511
0.0150711
0.0015124
0.0145899
0.00145368
0.0141269
0.00139872
0.013681
0.0013472
0.0132512
0.00129897
0.0128365
0.00125372
0.012436
0.00121139
0.0120489
0.00117163
0.0116742
0.00113452
0.0113113
0.00109964
0.0109594
0.00106718
0.0106178
0.00103665
0.0102858
0.0010084
0.00996279
0.000981781
0.00964815
0.000957374
0.00934137
0.000934293
0.00904177
0.000913418
0.00874896
0.000893556
0.00846225
0.000875962
0.00818133
0.000859033
0.00790552
0.000844512
0.0076346
0.000830248
0.00736784
0.00081862
0.00710516
0.000806751
0.00684573
0.000797869
0.00658965
0.000788115
0.00633598
0.000781851
0.006085
0.000773904
0.00583565
0.000770116
0.00558845
0.000763606
0.00534215
0.000762117
0.0050976
0.0007566
0.00485328
0.000757187
0.00461047
0.000752146
0.00436734
0.000754541
0.00412566
0.000749324
0.00388324
0.000753167
0.00364243
0.000747099
0.00340061
0.000751926
0.00316076
0.000744341
0.00291984
0.00074966
0.00268141
0.000740029
0.00244202
0.000745367
0.00220575
0.000733492
0.00196884
0.00073826
0.00173563
0.000724402
0.00150225
0.000728232
0.00127302
0.000712883
0.00104432
0.000714486
0.000818902
0.000702625
0.000592792
0.000708619
0.0003651
0.000714378
0.000134599
0.000733132
-0.000101884
0.000752794
-0.000334965
0.000755128
-0.000577647
0.000786124
-0.000811999
0.000774523
-0.00105704
0.000812859
-0.00126719
0.000703118
-0.00151522
0.000832029
-0.00169782
0.000607249
-0.00207035
0.00129139
-0.00232854
0.00109154
-0.00205947
-0.000995456
-0.00174268
-0.0017806
-0.00370783
0.00655737
-0.0068246
0.0124058
-0.00758115
0.0045974
-0.00466254
-0.00913399
-7.14282e-05
-0.0160022
0.00367357
-0.0139152
0.00588663
-0.00806775
0.00669367
-0.00299728
0.00670036
0.000217726
0.00693515
-0.000206193
0.00792525
-0.00291719
0.0100919
-0.00715514
-0.0103531
0.0605679
0.0113642
-0.0600044
0.0612528
0.0119661
0.0619681
0.0124867
0.062591
0.0128519
0.063024
0.0130398
0.0632033
0.0130601
0.0630933
0.012934
0.0626835
0.0126864
0.0619843
0.0123428
0.0610201
0.0119269
0.0598253
0.0114589
0.0584396
0.0109562
0.0569041
0.0104335
0.0552588
0.00990301
0.0535404
0.00937448
0.0517813
0.00885585
0.0500089
0.00835315
0.0482452
0.00787079
0.0465073
0.00741173
0.0448082
0.00697773
0.043157
0.00656954
0.0415598
0.00618718
0.0400205
0.00583007
0.0385409
0.00549726
0.0371216
0.00518756
0.0357622
0.00489961
0.0344615
0.00463201
0.0332177
0.00438335
0.0320289
0.00415224
0.0308928
0.00393736
0.0298071
0.00373747
0.0287694
0.00355141
0.0277773
0.0033781
0.0268285
0.00321653
0.0259207
0.0030658
0.0250517
0.00292507
0.0242194
0.00279357
0.0234217
0.00267061
0.0226569
0.00255555
0.0219229
0.0024478
0.0212182
0.00234687
0.0205411
0.00225222
0.01989
0.00216348
0.0192635
0.00208019
0.0186602
0.00200205
0.0180787
0.00192865
0.0175179
0.00185981
0.0169765
0.0017951
0.0164534
0.00173446
0.0159476
0.00167744
0.0154581
0.0016241
0.0149838
0.00157391
0.0145238
0.00152713
0.0140774
0.00148308
0.0136436
0.00144223
0.0132216
0.00140373
0.0128107
0.00136832
0.0124101
0.00133486
0.0120191
0.00130447
0.011637
0.00127561
0.0112631
0.00124987
0.0108969
0.00122522
0.0105376
0.00120386
0.0101848
0.00118304
0.00983759
0.0011658
0.00949589
0.00114845
0.00915864
0.00113512
0.0088259
0.00112086
0.0084965
0.00111125
0.00817075
0.00109965
0.00784731
0.00109355
0.0075268
0.00108412
0.00720763
0.00108128
0.00689082
0.00107341
0.0065745
0.0010735
0.00626018
0.00106647
0.00594562
0.0010691
0.00563293
0.00106201
0.00531944
0.00106666
0.00500797
0.00105856
0.00469536
0.00106454
0.00438519
0.0010545
0.00407379
0.00106107
0.00376549
0.00104833
0.00345611
0.00105474
0.00315063
0.00103897
0.00284455
0.00104434
0.00254312
0.00102583
0.0022418
0.00102955
0.00194575
0.00100893
0.00165077
0.00100947
0.00136006
0.000993326
0.00106922
0.000999461
0.000777177
0.00100642
0.000482986
0.00102732
0.00018321
0.00105257
-0.000110019
0.00104836
-0.000415117
0.00109122
-0.000705905
0.00106531
-0.00100925
0.00111621
-0.00126728
0.000961143
-0.00157122
0.00113597
-0.00179351
0.000829539
-0.00223533
0.00173322
-0.00251045
0.00136666
-0.00221406
-0.00129185
-0.00194441
-0.00205024
-0.00428084
0.00889381
-0.00763701
0.015762
-0.0081558
0.00511616
-0.00449548
-0.0127943
0.000966973
-0.0214647
0.00529901
-0.0182472
0.00789723
-0.010666
0.00884839
-0.00394844
0.00892184
0.000144277
0.00932966
-0.000614013
0.0106156
-0.00420312
0.013271
-0.0098106
-0.0141027
0.0648536
0.0108794
-0.0643687
0.0654194
0.0114002
0.0660277
0.0118784
0.0666132
0.0122664
0.0671133
0.0125397
0.0674796
0.0126938
0.0676767
0.0127369
0.0676807
0.0126823
0.0674785
0.012545
0.067066
0.0123394
0.0664468
0.0120781
0.0656314
0.0117716
0.0646356
0.0114293
0.0634792
0.0110594
0.0621849
0.0106688
0.0607766
0.0102641
0.0592787
0.0098511
0.0577144
0.00943505
0.0561056
0.00902062
0.0544714
0.00861183
0.0528289
0.00821205
0.0511922
0.00782395
0.0495727
0.00744955
0.0479797
0.00709028
0.0464202
0.00674707
0.0448994
0.00642037
0.0434211
0.00611031
0.0419877
0.00581672
0.0406007
0.00553925
0.0392607
0.00527737
0.0379677
0.00503046
0.0367213
0.00479785
0.0355205
0.00457883
0.0343644
0.00437266
0.0332516
0.00417863
0.0321806
0.00399603
0.03115
0.00382421
0.0301581
0.00366249
0.0292034
0.00351028
0.0282842
0.00336698
0.027399
0.00323209
0.0265461
0.00310505
0.0257242
0.00298545
0.0249316
0.00287277
0.0241669
0.00276672
0.0234288
0.00266677
0.0227159
0.00257276
0.0220268
0.00248415
0.0213604
0.0024009
0.0207154
0.00232244
0.0200906
0.00224887
0.019485
0.00217952
0.0188974
0.00211472
0.0183268
0.00205362
0.0177723
0.00199682
0.0172328
0.00194323
0.0167073
0.00189379
0.0161951
0.00184706
0.0156951
0.00180444
0.0152067
0.00176401
0.0147288
0.00172777
0.0142609
0.00169313
0.0138019
0.00166288
0.0133514
0.00163355
0.0129082
0.00160896
0.0124722
0.00158446
0.0120421
0.00156524
0.0116179
0.00154507
0.0111981
0.00153098
0.0107832
0.00151458
0.0103714
0.00150534
0.0099635
0.00149205
0.00955748
0.0014873
0.00915457
0.00147632
0.00875246
0.00147561
0.00835295
0.00146598
0.00795328
0.00146877
0.00755601
0.00145928
0.00715785
0.00146482
0.00676222
0.00145419
0.00636524
0.00146151
0.00597128
0.00144846
0.00557585
0.0014565
0.00518424
0.00143994
0.00479138
0.0014476
0.00440335
0.001427
0.00401473
0.00143296
0.00363195
0.00140861
0.00324957
0.00141193
0.00287389
0.00138461
0.00249991
0.00138345
0.0021316
0.00136163
0.00176401
0.00136705
0.00139611
0.00137433
0.00102753
0.0013959
0.000654194
0.0014259
0.000290856
0.00141169
-8.4738e-05
0.00146681
-0.000438557
0.00141913
-0.000807006
0.00148466
-0.00111722
0.00127136
-0.00148165
0.0015004
-0.00174441
0.00109229
-0.00225472
0.00224354
-0.002539
0.00165092
-0.00222531
-0.00160554
-0.00201599
-0.00225954
-0.00469078
0.0115686
-0.00814493
0.0192161
-0.00829924
0.00527046
-0.00384046
-0.0172531
0.00252583
-0.027831
0.00741988
-0.0231413
0.0104163
-0.0136624
0.0115237
-0.00505578
0.0116955
-2.75885e-05
0.0123233
-0.00124178
0.0139445
-0.00582428
0.0171182
-0.0129843
-0.0185622
0.0694272
0.0104515
-0.0689994
0.0699111
0.0109163
0.0704321
0.0113574
0.0709546
0.0117439
0.0714389
0.0120554
0.0718511
0.0122816
0.0721653
0.0124227
0.0723621
0.0124855
0.0724275
0.0124796
0.0723515
0.0124154
0.0721272
0.0123024
0.0717508
0.0121479
0.0712219
0.0119583
0.0705426
0.0117387
0.0697184
0.011493
0.0687578
0.0112247
0.067672
0.010937
0.0664741
0.0106329
0.0651792
0.0103156
0.0638029
0.00998808
0.0623613
0.00965364
0.06087
0.0093153
0.0593436
0.00897597
0.0577955
0.00863834
0.0562378
0.00830477
0.0546809
0.00797728
0.0531337
0.00765754
0.0516035
0.00734689
0.0500964
0.00704633
0.0486172
0.00675656
0.0471696
0.00647808
0.0457564
0.00621111
0.0443794
0.00595576
0.0430401
0.00571195
0.0417392
0.00547953
0.040477
0.00525825
0.0392534
0.0050478
0.0380681
0.00484783
0.0369204
0.00465797
0.0358096
0.00447781
0.0347347
0.00430698
0.0336947
0.00414503
0.0326885
0.00399164
0.0317149
0.00384633
0.0307728
0.00370886
0.0298608
0.00357872
0.0289778
0.00345576
0.0281226
0.00333942
0.0272938
0.00322969
0.0264903
0.00312594
0.0257108
0.00302832
0.0249543
0.00293606
0.0242195
0.00284956
0.0235052
0.00276783
0.0228104
0.00269161
0.0221341
0.00261958
0.021475
0.0025529
0.0208322
0.00248982
0.0202046
0.00243206
0.0195914
0.00237725
0.0189913
0.00232789
0.0184036
0.00228075
0.0178272
0.00223931
0.0172615
0.00219926
0.0167051
0.00216535
0.0161578
0.00213178
0.015618
0.00210505
0.0150857
0.00207735
0.0145592
0.00205749
0.0140388
0.00203494
0.0135226
0.00202158
0.0130113
0.00200334
0.0125026
0.00199603
0.0119978
0.00198107
0.0114942
0.00197922
0.0109939
0.00196629
0.0104935
0.00196916
0.00999612
0.00195668
0.00949769
0.00196324
0.00900237
0.00194951
0.00850542
0.00195847
0.00801213
0.00194175
0.00751703
0.0019516
0.00702657
0.0019304
0.0065346
0.00193957
0.00604854
0.00191305
0.00556184
0.00191967
0.0050824
0.00188805
0.00460368
0.00189065
0.00413342
0.00185487
0.00366563
0.00185123
0.00320538
0.00182188
0.00274709
0.00182534
0.00229006
0.00183135
0.00183469
0.00185126
0.00137606
0.00188453
0.000932186
0.00185557
0.000476877
0.00192212
5.30809e-05
0.00184292
-0.000388121
0.00192586
-0.000754723
0.00163796
-0.00118373
0.00192941
-0.00148594
0.00139451
-0.00206238
0.00281998
-0.00234696
0.00193549
-0.00202468
-0.00192782
-0.00187599
-0.00240822
-0.00483189
0.0145245
-0.00821724
0.0226015
-0.0078709
0.0049241
-0.00257016
-0.0225538
0.00472258
-0.0351237
0.010154
-0.0285727
0.013562
-0.0170704
0.0148401
-0.00633386
0.0151457
-0.000333165
0.016041
-0.00213708
0.0180348
-0.00781813
0.0217487
-0.0166982
-0.0237497
0.0743082
0.0100683
-0.073925
0.0747329
0.0104916
0.075188
0.0109023
0.0756527
0.0112792
0.0761013
0.0116069
0.0765091
0.0118738
0.0768563
0.0120755
0.0771283
0.0122135
0.0773148
0.0122931
0.0774084
0.0123218
0.0774034
0.0123074
0.0772948
0.0122566
0.0770781
0.012175
0.0767496
0.0120671
0.0763062
0.0119364
0.075746
0.0117849
0.0750687
0.0116143
0.0742762
0.0114255
0.0733722
0.0112196
0.0723628
0.0109975
0.0712558
0.0107606
0.0700607
0.0105104
0.0687882
0.0102485
0.0674495
0.00997706
0.0660561
0.0096981
0.0646196
0.00941379
0.0631509
0.00912626
0.0616603
0.00883755
0.060157
0.00854955
0.0586497
0.00826394
0.0571455
0.00798222
0.055651
0.00770563
0.0541715
0.00743523
0.0527116
0.00717186
0.051275
0.00691619
0.0498645
0.00666868
0.0484826
0.00642972
0.047131
0.00619949
0.0458108
0.00597814
0.0445229
0.00576567
0.0432678
0.00556208
0.0420456
0.00536722
0.0408562
0.00518103
0.0396994
0.00500323
0.0385744
0.00483377
0.0374809
0.00467225
0.036418
0.00451869
0.0353848
0.00437257
0.0343805
0.00423402
0.0334041
0.00410236
0.0324545
0.00397792
0.0315307
0.00385981
0.0306317
0.00374864
0.0297563
0.00364322
0.0289034
0.00354453
0.0280719
0.00345099
0.0272608
0.0033641
0.0264689
0.00328169
0.025695
0.00320596
0.0249383
0.00313398
0.0241973
0.00306887
0.0234714
0.00300666
0.022759
0.00295168
0.0220596
0.00289859
0.0213717
0.0028533
0.0206948
0.00280863
0.0200272
0.00277266
0.0193689
0.00273566
0.0187178
0.00270864
0.0180742
0.00267847
0.0174358
0.00265998
0.0168036
0.00263559
0.0161746
0.00262506
0.0155505
0.00260515
0.0149278
0.00260184
0.0143093
0.00258484
0.0136907
0.00258778
0.0130757
0.00257166
0.0124594
0.00257953
0.0118468
0.00256207
0.0112322
0.00257311
0.0106219
0.00255203
0.0100093
0.00256421
0.00940221
0.00253748
0.00879318
0.0025486
0.00819131
0.00251492
0.00758862
0.00252236
0.00699486
0.0024818
0.00640209
0.00248341
0.00581994
0.00243702
0.00524117
0.00243
0.00467238
0.00239067
0.00410725
0.00239047
0.00354585
0.00239275
0.00298943
0.00240769
0.00243224
0.00244172
0.00189632
0.00239149
0.00135048
0.00246796
0.000847306
0.0023461
0.00032724
0.00244592
-9.90981e-05
0.0020643
-0.000596255
0.00242656
-0.00093454
0.00173279
-0.00157359
0.00345903
-0.00184729
0.00220919
-0.00152091
-0.0022542
-0.00141775
-0.00251137
-0.00457302
0.0176798
-0.00770207
0.0257305