/*--------------------------------*- C++ -*----------------------------------*\
| =========                 |                                                 |
| \\      /  F ield         | OpenFOAM: The Open Source CFD Toolbox           |
|  \\    /   O peration     | Version:  2412                                  |
|   \\  /    A nd           | Website:  www.openfoam.com                      |
|    \\/     M anipulation  |                                                 |
\*---------------------------------------------------------------------------*/
FoamFile
{
    version     2.0;
    format      ascii;
    arch        "LSB;label=32;scalar=64";
    class       volVectorField;
    location    "0.645";
    object      ddtCorrDdt0(U);
}
// * * * * * * * * * * * * * * * * * * * * * * * * * * * * * * * * * * * * * //

dimensions      [0 1 -2 0 0 0 0];

internalField   nonuniform List<vector> 
12600
(
(-0.197667 -7.45147e-22 -0.0393111)
(-0.14444 -2.93479e-21 -0.0116715)
(-0.0851592 -1.6553e-21 0.00287339)
(-0.0564691 0 0.00697257)
(-0.0451744 -1.05766e-21 0.00794934)
(-0.0411383 -1.15385e-21 0.00812266)
(-0.0408286 0 0.00797295)
(-0.0418862 0 0.00793812)
(-0.0424303 4.30394e-21 0.00773198)
(-0.0413684 0 0.00731184)
(-0.0386298 -2.0804e-21 0.00677082)
(-0.0349648 -2.04829e-21 0.00624813)
(-0.0313506 2.02105e-21 0.00584728)
(-0.0284535 0 0.00559049)
(-0.0264316 1.97026e-21 0.00543356)
(-0.0250637 0 0.00531091)
(-0.0240065 -7.82239e-21 0.0051741)
(-0.0230043 0 0.0050071)
(-0.0219721 3.83651e-21 0.00482037)
(-0.0209623 3.83356e-21 0.00463504)
(-0.0200688 -3.7929e-21 0.00446721)
(-0.0193395 -2.55171e-23 0.00431963)
(-0.01874 0 0.00418261)
(-0.0181787 7.33578e-21 0.00404233)
(-0.0175641 0 0.00388994)
(-0.0168573 0 0.00372723)
(-0.0160876 7.14165e-21 0.00356466)
(-0.0153313 0 0.00341623)
(-0.0146632 4.81313e-23 0.00329047)
(-0.0141236 -6.7383e-21 0.0031889)
(-0.0136957 -6.58854e-21 0.00310314)
(-0.0133325 -6.39834e-21 0.00302488)
(-0.0129632 6.20334e-21 0.0029423)
(-0.0125386 1.18957e-20 0.0028531)
(-0.0119963 1.14113e-20 0.00274737)
(-0.0113077 -1.0792e-20 0.00262719)
(-0.0104044 0 0.00247655)
(-0.00927987 9.40036e-21 0.00230144)
(-0.007873 0 0.00208002)
(-0.0062467 -7.91675e-21 0.00183178)
(-0.00437994 0 0.00153288)
(-0.0024512 4.36748e-23 0.00122722)
(-0.000479006 0 0.000888413)
(0.00124389 4.03151e-23 0.000590177)
(0.00272637 -1.03712e-20 0.000292796)
(0.00361257 8.13021e-21 9.74773e-05)
(0.00404853 -9.1349e-21 -6.83684e-05)
(0.00367618 0 -8.18027e-05)
(0.00287099 0 -6.73055e-05)
(0.00126839 -5.66855e-21 0.000122654)
(-0.00050361 -1.70227e-20 0.000301458)
(-0.00288554 -9.41888e-21 0.000652306)
(-0.00502003 -3.16456e-23 0.000922867)
(-0.00753659 -6.93845e-21 0.0013502)
(-0.00939276 0 0.00161788)
(-0.0115175 3.77147e-21 0.00203626)
(-0.0127092 1.51491e-20 0.00222675)
(-0.0142785 2.1092e-22 0.00259022)
(-0.0148471 0 0.00268385)
(-0.0161207 0 0.0030076)
(-0.0164683 0 0.00304432)
(-0.0179325 9.84896e-21 0.00338991)
(-0.018526 0 0.00343616)
(-0.0205422 0 0.00386421)
(-0.0215971 6.04863e-20 0.00396356)
(-0.0241563 0 0.00449082)
(-0.0255259 0 0.00463788)
(-0.0282349 0 0.00522236)
(-0.0295093 -6.16878e-20 0.0053667)
(-0.0317964 -8.18103e-22 0.005925)
(-0.0325788 4.78751e-20 0.00600437)
(-0.0340377 -2.99974e-23 0.00645657)
(-0.0342361 -2.2005e-20 0.0064425)
(-0.0348761 0 0.00675804)
(-0.034821 -1.2232e-20 0.0066843)
(-0.0351386 0 0.00691004)
(-0.0355623 0 0.00689327)
(-0.0362779 0 0.00712326)
(-0.037736 1.7402e-22 0.00728411)
(-0.0395032 2.13095e-19 0.00760468)
(-0.0416655 -2.23555e-19 0.00798066)
(-0.0444133 -2.81006e-19 0.00839427)
(-0.0467697 2.50775e-19 0.00886058)
(-0.0508421 0 0.0093462)
(-0.0511323 0 0.00986092)
(-0.0580334 5.90686e-19 0.0104808)
(-0.0569061 7.26784e-19 0.0106137)
(-0.0616214 6.92607e-19 0.0118188)
(-0.0606884 -7.24631e-20 0.0115248)
(-0.0711789 0 0.0120028)
(-0.0511182 9.637e-19 0.0119816)
(-0.0776917 6.36688e-19 0.013747)
(-0.0598749 -5.10376e-19 0.00957505)
(-0.0499387 -5.72623e-18 0.0143481)
(-0.078308 0 0.0115982)
(-0.0510595 0 0.00920317)
(-0.0224121 0 0.0119185)
(-0.0933789 0 0.0103178)
(0.000732739 0 -0.000115257)
(-0.0304629 0 0.0144485)
(-0.159971 -5.22459e-17 0.0194035)
(0.008841 1.16159e-16 0.00352357)
(-0.0564909 -2.30122e-17 0.0143378)
(-0.534861 0 0.0902186)
(0.63374 0 -0.109631)
(1.17909 0 -0.227512)
(-2.20298 -1.71779e-16 0.429144)
(-0.0358326 6.13487e-16 -0.0248405)
(4.92133 1.73508e-16 -0.899734)
(-3.20319 0 0.648778)
(-8.42369 4.20785e-16 1.54667)
(3.31353 0 -0.711446)
(9.76994 -1.75475e-16 -1.82256)
(0.373561 -2.37781e-16 -0.0832615)
(-6.21953 -8.10832e-17 1.2125)
(-5.36381 -3.6214e-17 1.01378)
(-3.06826 -6.12302e-17 0.560278)
(-1.26921 -4.69946e-20 0.225122)
(0.819813 2.09335e-17 -0.171044)
(0.770853 0 -0.156745)
(-0.285464 7.52423e-22 -0.0666438)
(-0.266142 0 -0.0368943)
(-0.217361 1.67503e-21 -0.00786823)
(-0.170867 0 0.00882692)
(-0.141914 1.07136e-21 0.0173701)
(-0.128481 1.94644e-21 0.0213342)
(-0.123997 9.99257e-22 0.0225391)
(-0.122532 0 0.0224749)
(-0.120194 -9.52467e-23 0.0214234)
(-0.114982 2.01887e-21 0.0197318)
(-0.107084 -2.00101e-21 0.0179345)
(-0.0981436 -1.99253e-21 0.016544)
(-0.0900513 1.98382e-21 0.0157874)
(-0.0839371 -1.976e-21 0.015552)
(-0.0798487 -3.96708e-21 0.0155471)
(-0.0770946 0 0.0155071)
(-0.0748345 6.42381e-23 0.0153033)
(-0.0725202 -3.85755e-21 0.014945)
(-0.0700242 -3.89233e-21 0.0145152)
(-0.0675073 0 0.0140967)
(-0.065184 0 0.0137272)
(-0.0631413 -3.78012e-21 0.0133921)
(-0.0612889 0 0.0130484)
(-0.0594398 -3.70537e-21 0.0126594)
(-0.0574421 7.24222e-21 0.0122185)
(-0.0552773 0 0.0117539)
(-0.0530644 -7.08558e-21 0.0113101)
(-0.0509902 0 0.0109265)
(-0.0491982 6.96619e-21 0.0106159)
(-0.04773 1.35701e-20 0.0103671)
(-0.0465069 1.3272e-20 0.0101487)
(-0.0454066 6.47631e-21 0.00993735)
(-0.0442936 -6.27718e-21 0.00971091)
(-0.0430981 -2.39773e-20 0.00947085)
(-0.0417425 -2.30069e-20 0.00920352)
(-0.040206 0 0.00891613)
(-0.0383897 0 0.00857865)
(-0.0362872 -4.88579e-23 0.00820242)
(-0.0337838 0 0.00774378)
(-0.0309615 7.9923e-21 0.00723738)
(-0.0277416 0 0.00663255)
(-0.0243783 1.29832e-20 0.00600905)
(-0.0208423 0 0.00530896)
(-0.0175874 1.03019e-20 0.00467081)
(-0.0145505 0 0.00401113)
(-0.0123406 -8.1866e-21 0.00352849)
(-0.0106962 0 0.00307714)
(-0.0103106 0 0.00291054)
(-0.0105688 8.64673e-21 0.00278379)
(-0.0122737 0 0.00301625)
(-0.0143689 0 0.00323434)
(-0.0178619 0 0.00384303)
(-0.0211929 1.69566e-20 0.0043166)
(-0.0257442 1.3882e-20 0.00518184)
(-0.0294206 0 0.00574773)
(-0.0341976 0 0.00670956)
(-0.0374146 -1.52908e-20 0.00720398)
(-0.0418903 -2.10895e-22 0.00814687)
(-0.0443136 0 0.00848793)
(-0.0485342 0 0.00940158)
(-0.0503875 0 0.00961861)
(-0.0548592 0 0.0105889)
(-0.0566328 -2.79972e-20 0.0107772)
(-0.0619079 -1.0998e-20 0.0119127)
(-0.0639602 -6.02322e-20 0.0121559)
(-0.0702903 0 0.0135129)
(-0.0726229 0 0.0138293)
(-0.0797869 0 0.0153644)
(-0.0820063 -4.94764e-23 0.0156911)
(-0.0894008 8.10174e-22 0.0172722)
(-0.0910077 -4.73742e-20 0.0175174)
(-0.0980394 2.11012e-20 0.0189953)
(-0.098811 -9.06634e-23 0.0191128)
(-0.105229 -2.36397e-20 0.0203944)
(-0.105377 1.20581e-20 0.0204267)
(-0.111547 0 0.0215496)
(-0.111986 0 0.021696)
(-0.118617 0 0.0227784)
(-0.120208 -1.6337e-19 0.0232562)
(-0.128122 0 0.0244407)
(-0.130735 0 0.0253083)
(-0.139904 2.75026e-19 0.0266298)
(-0.14317 -2.45176e-19 0.0277197)
(-0.154341 0 0.0291886)
(-0.15529 0 0.0302652)
(-0.17039 0 0.0322122)
(-0.168682 -7.08566e-19 0.0323827)
(-0.183425 1.64348e-22 0.0353958)
(-0.178415 -7.10764e-20 0.0347517)
(-0.201933 -3.1484e-19 0.0371607)
(-0.172704 -9.33859e-19 0.0351982)
(-0.215427 6.17958e-19 0.0415414)
(-0.182685 9.87154e-19 0.0319805)
(-0.19321 0 0.0417271)
(-0.198863 0 0.036792)
(-0.200013 0 0.0347254)
(-0.137553 0 0.0340588)
(-0.229586 2.5078e-17 0.0383751)
(-0.10028 0 0.0121586)
(-0.143047 0 0.0389013)
(-0.396788 -5.00699e-17 0.0676533)
(-0.105569 -5.56555e-17 0.0179584)
(-0.140497 4.40152e-17 0.0434407)
(-1.43531 -1.25354e-16 0.266766)
(1.84369 0 -0.375748)
(3.19735 0 -0.578663)
(-6.43299 0 1.27557)
(0.601756 -2.92244e-16 -0.275412)
(13.4317 -1.65128e-16 -2.49929)
(-10.7608 0 2.36827)
(-22.7239 -7.9988e-16 4.21408)
(11.2805 1.59687e-16 -2.52091)
(26.8523 3.33258e-16 -5.08483)
(-0.753724 0 0.397301)
(-18.2394 0 3.63219)
(-15.0506 -3.43248e-17 2.83134)
(-8.508 0 1.56536)
(-3.24464 -2.70665e-17 0.550497)
(2.68926 -1.96809e-17 -0.573813)
(2.24741 0 -0.440239)
(-0.29257 0 -0.0553736)
(-0.29756 0 -0.0440158)
(-0.282601 1.21881e-21 -0.0231268)
(-0.253967 0 -0.00307682)
(-0.226529 0 0.0137988)
(-0.207954 -9.45954e-22 0.0253852)
(-0.197583 -9.46219e-22 0.0309183)
(-0.191152 0 0.0317006)
(-0.184364 -1.60337e-23 0.0295689)
(-0.174657 -1.91247e-21 0.0261743)
(-0.16203 3.78617e-21 0.0230535)
(-0.148455 1.88782e-21 0.021283)
(-0.13641 -1.22602e-23 0.0210579)
(-0.127436 1.87236e-21 0.0218084)
(-0.121566 1.86464e-21 0.0227316)
(-0.117748 -1.83755e-21 0.0232692)
(-0.114704 3.68071e-21 0.0232747)
(-0.111599 3.65552e-21 0.0229082)
(-0.108228 0 0.0224231)
(-0.104812 0 0.0219951)
(-0.101641 -3.53748e-21 0.0216576)
(-0.0988145 -3.50297e-21 0.0213356)
(-0.0961894 0 0.0209279)
(-0.093505 0 0.0203827)
(-0.0905732 -6.86241e-21 0.0197283)
(-0.0874081 0 0.0190526)
(-0.0842124 1.33605e-20 0.0184501)
(-0.0812634 -6.55807e-21 0.0179772)
(-0.0787523 0 0.017628)
(-0.0767152 -6.39131e-21 0.0173563)
(-0.0750234 -6.25387e-21 0.0171016)
(-0.0735078 0 0.0168325)
(-0.0719989 5.86079e-21 0.0165364)
(-0.0704347 1.1313e-20 0.0162316)
(-0.0687404 5.01875e-23 0.0159166)
(-0.0669209 0 0.0156035)
(-0.0648588 0 0.0152632)
(-0.0625676 -8.94722e-21 0.0149052)
(-0.059889 0 0.0144848)
(-0.0569389 0 0.0140296)
(-0.0535714 0 0.0134835)
(-0.0501075 0 0.0129126)
(-0.0464215 0 0.0122499)
(-0.0430904 0 0.0116169)
(-0.0399096 0 0.010923)
(-0.0376862 7.63088e-21 0.0103555)
(-0.0359372 -8.63128e-21 0.00976885)
(-0.0356551 0 0.00942262)
(-0.0358916 -8.18062e-21 0.00908497)
(-0.0379051 0 0.00910801)
(-0.040148 0 0.00912825)
(-0.0442843 8.82731e-21 0.00960411)
(-0.0480221 0 0.00998888)
(-0.0536565 -6.5489e-21 0.010883)
(-0.0580205 1.56102e-20 0.0115145)
(-0.0643463 0 0.012688)
(-0.0684644 1.44532e-20 0.0133794)
(-0.0749289 0 0.0146829)
(-0.0783661 0 0.0152856)
(-0.0849943 0 0.0166494)
(-0.0878773 2.58785e-20 0.0171138)
(-0.0951767 -9.60706e-21 0.0185733)
(-0.0979033 -8.8746e-23 0.018938)
(-0.10645 2.09024e-20 0.0205944)
(-0.10932 -2.81152e-23 0.0209435)
(-0.119447 0 0.0229043)
(-0.122461 0 0.0233018)
(-0.134053 1.06072e-20 0.0255962)
(-0.136836 6.2885e-23 0.0260283)
(-0.149358 0 0.0285773)
(-0.151446 0 0.0289857)
(-0.164319 -1.00071e-20 0.0316479)
(-0.165538 -9.07791e-24 0.0319858)
(-0.178426 -4.28589e-22 0.0346064)
(-0.178984 0 0.0348704)
(-0.192164 0 0.0374023)
(-0.193078 9.0801e-20 0.0377498)
(-0.207092 1.32019e-19 0.0402091)
(-0.209316 0 0.0408483)
(-0.224868 0 0.0433364)
(-0.228232 0 0.0443313)
(-0.245146 0 0.0469144)
(-0.24932 0 0.0482429)
(-0.268545 0 0.0509947)
(-0.26997 0 0.052191)
(-0.293915 0 0.0556661)
(-0.291226 6.67242e-19 0.0558015)
(-0.316443 -3.16804e-19 0.0602467)
(-0.30738 6.68028e-20 0.0593281)
(-0.343783 2.95847e-19 0.0645258)
(-0.306037 8.77414e-19 0.0598273)
(-0.365931 -5.80443e-19 0.0702678)
(-0.317629 -4.63501e-19 0.0590484)
(-0.350969 0 0.0701964)
(-0.335217 0 0.0637353)
(-0.364116 0 0.0686189)
(-0.270948 0 0.0567969)
(-0.388968 -2.35273e-17 0.0717528)
(-0.220874 0 0.0384058)
(-0.29524 0 0.0643812)
(-0.651054 4.69468e-17 0.121655)
(-0.23848 0 0.0406345)
(-0.282018 -2.06135e-17 0.0800108)
(-2.22794 1.1747e-16 0.360684)
(3.13191 0 -0.701923)
(4.70554 0 -0.743889)
(-10.3588 0 2.08388)
(1.84884 -2.74069e-16 -0.857274)
(20.5252 0 -3.64988)
(-19.0885 -8.63712e-17 4.61308)
(-34.6428 -2.90505e-19 6.09761)
(20.2159 -1.4945e-16 -4.93767)
(41.5126 -3.12559e-16 -7.63075)
(-3.74096 0 1.52365)
(-29.7206 7.1724e-17 6.00548)
(-23.6927 3.21068e-17 4.30703)
(-13.354 -5.43257e-17 2.32811)
(-4.66152 0 0.660795)
(4.7089 1.84022e-17 -1.0572)
(3.58771 0 -0.679584)
(-0.285098 0 -0.0418979)
(-0.29512 0 -0.0392886)
(-0.299018 -1.1521e-21 -0.0286022)
(-0.291202 0 -0.0122876)
(-0.276988 8.47445e-22 0.00653945)
(-0.263002 -1.69153e-21 0.0225325)
(-0.252085 0 0.0318)
(-0.243264 1.74766e-21 0.034173)
(-0.23387 -1.82011e-21 0.031664)
(-0.22161 -1.8115e-21 0.0269674)
(-0.206094 -1.78754e-21 0.0228505)
(-0.189121 1.77609e-21 0.0211821)
(-0.173541 -1.76601e-21 0.0221453)
(-0.161518 3.49185e-21 0.0245516)
(-0.153471 0 0.0269059)
(-0.1483 3.46253e-21 0.0282874)
(-0.144386 0 0.0285846)
(-0.140555 0 0.0282157)
(-0.136442 0 0.027693)
(-0.132272 -3.34562e-21 0.0273173)
(-0.128404 2.99415e-23 0.0271046)
(-0.124973 3.09082e-23 0.0268908)
(-0.121806 -3.24764e-21 0.0264991)
(-0.118583 0 0.0258669)
(-0.115072 0 0.0250732)
(-0.1113 0 0.0242813)
(-0.107531 -1.25165e-20 0.0236387)
(-0.104116 5.38209e-23 0.023208)
(-0.101285 0 0.0229482)
(-0.0990717 0 0.0227667)
(-0.0973029 0 0.0225718)
(-0.0957696 0 0.0223311)
(-0.0942715 -1.10509e-20 0.0220495)
(-0.0927543 0 0.0217682)
(-0.0911434 1.02209e-20 0.0214955)
(-0.0894677 0 0.0212463)
(-0.0875896 0 0.0209858)
(-0.0855447 8.39778e-21 0.0207221)
(-0.0831345 0 0.0204058)
(-0.0805189 0 0.0200628)
(-0.0774899 -6.64656e-21 0.0196312)
(-0.0744451 1.14531e-20 0.0191725)
(-0.0711598 0 0.0186118)
(-0.0683375 9.05631e-21 0.0180634)
(-0.0656164 0 0.0174287)
(-0.063999 -1.43788e-20 0.0168896)
(-0.0627508 3.14852e-23 0.0162959)
(-0.063162 0 0.015914)
(-0.0639108 0 0.0155181)
(-0.0667177 4.96822e-21 0.0154868)
(-0.0694949 1.53093e-20 0.0154603)
(-0.0745897 -1.6641e-20 0.0159377)
(-0.078922 0 0.0163517)
(-0.0857593 -6.18566e-21 0.0173597)
(-0.0907986 -1.47355e-20 0.0181224)
(-0.0986342 -3.37507e-21 0.0195348)
(-0.103503 -1.38529e-20 0.0204406)
(-0.111847 0 0.0220888)
(-0.1161 0 0.022944)
(-0.125048 5.32416e-21 0.0247266)
(-0.128787 -4.89929e-20 0.0254295)
(-0.13891 9.06107e-21 0.0273591)
(-0.142472 -9.45254e-23 0.0279131)
(-0.154394 -9.91683e-21 0.0301041)
(-0.158011 2.68524e-20 0.0305984)
(-0.172134 0 0.0332141)
(-0.175773 0 0.0337436)
(-0.192067 -9.99602e-21 0.0368758)
(-0.195333 1.08538e-19 0.0374468)
(-0.213334 0 0.0410558)
(-0.215788 4.19731e-20 0.0416128)
(-0.234961 9.85341e-21 0.0455561)
(-0.236487 1.93853e-20 0.0460316)
(-0.256454 4.32805e-20 0.0500991)
(-0.257295 0 0.0504556)
(-0.278287 0 0.0545484)
(-0.27957 -8.54457e-20 0.0549305)
(-0.301973 -2.49864e-19 0.0589989)
(-0.304736 1.4663e-19 0.0596461)
(-0.329095 0 0.0637568)
(-0.333116 0 0.0647748)
(-0.35907 0 0.0689905)
(-0.364055 0 0.0704802)
(-0.392611 0 0.0748833)
(-0.394452 0 0.0762573)
(-0.428425 -5.1185e-19 0.0814325)
(-0.424811 2.01526e-22 0.0817229)
(-0.461459 2.96954e-19 0.0879152)
(-0.448705 0 0.0865973)
(-0.498914 2.77086e-19 0.0944395)
(-0.453094 -4.11833e-19 0.0882853)
(-0.531228 0 0.101479)
(-0.468256 -4.43847e-19 0.089075)
(-0.525311 4.89894e-18 0.10324)
(-0.489305 0 0.0926575)
(-0.547544 0 0.105577)
(-0.423097 0 0.0843312)
(-0.572313 -2.21082e-17 0.10599)
(-0.365076 0 0.068128)
(-0.482712 0 0.101503)
(-0.919661 4.41017e-17 0.173924)
(-0.393454 4.89183e-17 0.0651689)
(-0.468686 0 0.135219)
(-2.8968 0 0.444832)
(4.43657 0 -1.05442)
(5.69267 0 -0.759519)
(-13.876 0 2.82886)
(3.57937 -1.17042e-19 -1.6428)
(26.0724 0 -4.39794)
(-27.8695 8.08235e-17 7.05032)
(-43.9672 3.50673e-16 7.34187)
(29.6466 0 -7.72249)
(53.4137 -4.11739e-19 -9.59551)
(-8.38567 0 3.35073)
(-40.3841 -9.58488e-20 8.29699)
(-31.1764 0 5.53673)
(-17.5576 5.07927e-17 2.89608)
(-5.5282 0 0.612644)
(6.83927 1.71685e-17 -1.55975)
(4.77148 0 -0.885068)
(-0.279818 0 -0.0357636)
(-0.286431 0 -0.0337459)
(-0.294555 0 -0.0281254)
(-0.297562 0 -0.0159374)
(-0.294334 -7.99912e-22 0.00121116)
(-0.287476 8.84461e-25 0.0175723)
(-0.279855 0 0.0282219)
(-0.272507 -1.64949e-21 0.0317911)
(-0.264504 0 0.0294784)
(-0.253998 3.4032e-21 0.0240359)
(-0.239865 0 0.0191463)
(-0.222957 -1.67669e-21 0.0176945)
(-0.20592 0 0.0201389)
(-0.191593 -3.29678e-21 0.024703)
(-0.181331 1.62531e-21 0.029018)
(-0.174571 -3.24379e-21 0.0316182)
(-0.16967 3.21082e-21 0.0323749)
(-0.165126 3.18857e-21 0.0320318)
(-0.160297 0 0.0314606)
(-0.155337 3.15916e-21 0.0311517)
(-0.15068 3.13121e-21 0.0311132)
(-0.146555 6.17392e-21 0.0310716)
(-0.142821 3.06663e-21 0.0307533)
(-0.139119 0 0.030079)
(-0.135153 0 0.0291888)
(-0.13092 0 0.0283359)
(-0.126709 5.88246e-21 0.0277273)
(-0.122934 5.80521e-21 0.0274273)
(-0.119882 0 0.0273462)
(-0.117597 0 0.0273329)
(-0.115876 -5.46109e-21 0.0272596)
(-0.114471 0 0.0270971)
(-0.11314 3.11871e-23 0.0268746)
(-0.111829 9.93611e-21 0.0266625)
(-0.110458 -9.55643e-21 0.026479)
(-0.10908 0 0.0263417)
(-0.107536 0 0.0262054)
(-0.105884 -7.92599e-21 0.0260796)
(-0.103884 0 0.0259066)
(-0.101747 0 0.0257196)
(-0.0992019 6.27211e-21 0.0254462)
(-0.096733 -1.08072e-20 0.0251564)
(-0.09401 0 0.0247585)
(-0.0918753 -8.54447e-21 0.0243752)
(-0.0897959 0 0.0238831)
(-0.0889874 6.76322e-21 0.0234751)
(-0.088443 7.66174e-21 0.0229705)
(-0.0897769 0 0.0226619)
(-0.0912629 7.22271e-21 0.0222957)
(-0.0951199 -4.68531e-21 0.022303)
(-0.098671 -2.8833e-20 0.0222859)
(-0.104998 7.83145e-21 0.0228207)
(-0.110159 -1.44184e-20 0.0232731)
(-0.118469 -1.48481e-23 0.0244084)
(-0.12439 0 0.0252703)
(-0.133987 3.18114e-21 0.0269105)
(-0.13977 1.30555e-20 0.0279846)
(-0.150222 -2.58005e-22 0.0299741)
(-0.155405 1.21777e-20 0.0310513)
(-0.166888 -5.01611e-21 0.0332804)
(-0.17155 2.31572e-20 0.0342202)
(-0.184713 8.47218e-21 0.0366815)
(-0.189141 2.36525e-20 0.0374422)
(-0.204682 0 0.0402476)
(-0.209055 0 0.0409019)
(-0.227474 -7.94971e-21 0.0442495)
(-0.231727 0 0.0449027)
(-0.253098 0 0.048937)
(-0.256815 -5.09962e-20 0.0496126)
(-0.280761 0 0.0543439)
(-0.283512 -3.94904e-20 0.0550032)
(-0.30956 -1.8851e-20 0.0603099)
(-0.311272 0 0.0608858)
(-0.339017 -2.05921e-20 0.066523)
(-0.33997 0 0.0669682)
(-0.369612 0 0.0727979)
(-0.37104 8.12628e-20 0.0732455)
(-0.402837 1.18099e-19 0.0791364)
(-0.40588 9.26041e-22 0.0798425)
(-0.440213 0 0.0857855)
(-0.444634 0 0.0868767)
(-0.480979 0 0.0929072)
(-0.486556 2.07551e-19 0.0945958)
(-0.525885 2.58397e-19 0.100772)
(-0.52804 0 0.102412)
(-0.573476 9.61664e-19 0.109336)
(-0.569038 -2.94487e-19 0.109887)
(-0.618455 -5.56747e-19 0.117891)
(-0.602408 5.76669e-20 0.116319)
(-0.667718 -5.18805e-19 0.126715)
(-0.614579 0 0.119493)
(-0.712144 0 0.135492)
(-0.635642 4.16179e-19 0.121935)
(-0.717864 -4.59283e-18 0.13973)
(-0.662358 -7.18164e-18 0.12552)
(-0.752063 0 0.145755)
(-0.596409 0 0.116189)
(-0.781294 2.0714e-17 0.14547)
(-0.535593 -1.59851e-17 0.102113)
(-0.707069 0 0.150028)
(-1.20175 -4.13023e-17 0.228577)
(-0.574588 -4.58067e-17 0.0921346)
(-0.692317 0 0.210076)
(-3.44455 0 0.549937)
(5.67562 0 -1.42236)
(6.17757 0 -0.601738)
(-16.9065 0 3.45965)
(5.60639 2.40135e-16 -2.60693)
(30.036 0 -4.70675)
(-36.6695 0 9.7219)
(-50.6736 0 7.7951)
(39.0216 1.2913e-16 -10.7752)
(62.3968 1.37244e-16 -10.7713)
(-14.4996 0 5.44161)
(-49.9995 -6.26183e-17 10.3927)
(-37.4613 0 6.41744)
(-21.1017 4.75929e-17 3.24992)
(-5.89006 0 0.380097)
(9.01635 -1.60446e-17 -2.10092)
(5.7828 0 -1.03937)
(-0.276285 4.32568e-22 -0.0338645)
(-0.279824 6.23593e-22 -0.0304744)
(-0.286262 -7.37182e-22 -0.0261376)
(-0.291759 -7.11491e-22 -0.0167611)
(-0.293248 0 -0.00247833)
(-0.290553 7.5019e-22 0.0122029)
(-0.285605 0 0.0227399)
(-0.280318 -1.47929e-21 0.0271028)
(-0.275234 -1.51193e-21 0.025493)
(-0.269257 -3.15286e-21 0.0199317)
(-0.260538 1.5778e-21 0.0143411)
(-0.248214 -1.57376e-21 0.0126633)
(-0.233552 0 0.0161663)
(-0.219307 0 0.0228821)
(-0.20785 -1.53228e-21 0.0295343)
(-0.199787 1.21092e-23 0.0338228)
(-0.194038 -1.95894e-23 0.03536)
(-0.189005 -1.42672e-23 0.0351643)
(-0.183703 0 0.0345551)
(-0.17809 0 0.034316)
(-0.172645 0 0.0344946)
(-0.167757 -5.78007e-21 0.034698)
(-0.163404 -2.84658e-21 0.0345254)
(-0.159238 0 0.0338593)
(-0.154884 0 0.0329005)
(-0.150249 -5.52074e-21 0.0320074)
(-0.145594 0 0.0314636)
(-0.14139 0 0.0313405)
(-0.138001 0 0.0314918)
(-0.135532 0 0.0316954)
(-0.133773 3.43317e-23 0.0317784)
(-0.132441 0 0.0317158)
(-0.131243 2.86153e-23 0.0315655)
(-0.130111 -9.36625e-21 0.0314353)
(-0.128952 4.50167e-23 0.0313544)
(-0.127851 0 0.0313446)
(-0.126624 0 0.031345)
(-0.125363 0 0.0313695)
(-0.123772 0 0.0313476)
(-0.122123 0 0.0313277)
(-0.120073 0 0.0312205)
(-0.118209 0 0.0311162)
(-0.116078 9.70983e-21 0.0308953)
(-0.114677 8.00292e-21 0.0307044)
(-0.11328 0 0.0303781)
(-0.113341 6.32599e-21 0.0301405)
(-0.113549 0 0.0297546)
(-0.115883 0 0.029567)
(-0.118165 -1.35733e-20 0.0292614)
(-0.123171 0 0.0293572)
(-0.127566 1.35582e-20 0.0293736)
(-0.135249 0 0.0300084)
(-0.141319 2.71304e-20 0.0305056)
(-0.151251 -2.04543e-23 0.0317963)
(-0.158135 0 0.0327435)
(-0.169667 0 0.0346292)
(-0.176443 0 0.035847)
(-0.189203 5.58725e-22 0.0381985)
(-0.195383 -2.29883e-20 0.0394766)
(-0.209625 4.46909e-21 0.0421891)
(-0.215254 -2.20498e-20 0.0433564)
(-0.231707 -1.58361e-20 0.0464073)
(-0.237017 2.23906e-20 0.0473776)
(-0.256467 0 0.0508743)
(-0.261585 0 0.051697)
(-0.284646 1.94211e-23 0.0558656)
(-0.289476 0 0.0566463)
(-0.316344 0 0.0616765)
(-0.320449 -4.7472e-20 0.0624491)
(-0.350861 0 0.0684017)
(-0.353817 0 0.069145)
(-0.387384 1.83882e-20 0.0759256)
(-0.389146 -1.65823e-20 0.0765765)
(-0.425456 0 0.0839131)
(-0.42635 0 0.0844274)
(-0.465591 0 0.0921522)
(-0.466952 -7.63182e-20 0.0926561)
(-0.509267 0 0.100557)
(-0.512345 -2.61592e-19 0.101326)
(-0.557948 -1.69043e-19 0.109308)
(-0.562527 0 0.110492)
(-0.610752 0 0.118559)
(-0.616715 -1.94762e-19 0.120477)
(-0.668434 8.42285e-22 0.128632)
(-0.670829 -1.95028e-19 0.130615)
(-0.729386 -4.51348e-19 0.139466)
(-0.724258 -2.76087e-19 0.140389)
(-0.788068 2.60765e-19 0.15039)
(-0.769158 -5.4068e-20 0.148754)
(-0.851195 1.60402e-21 0.161752)
(-0.791525 0 0.153867)
(-0.910076 -4.71807e-19 0.172774)
(-0.821214 0 0.158248)
(-0.930374 0 0.180323)
(-0.856328 6.72785e-18 0.162367)
(-0.97978 0 0.189896)
(-0.793463 0 0.152527)
(-1.01878 0 0.190257)
(-0.735439 1.4967e-17 0.141064)
(-0.970182 0 0.207793)
(-1.49788 -3.87218e-17 0.28566)
(-0.786528 0 0.123253)
(-0.952515 0 0.297059)
(-3.90827 0 0.551432)
(6.77581 0 -1.78363)
(6.19442 0 -0.287347)
(-19.3977 -1.26645e-16 3.97533)
(7.71399 2.24585e-16 -3.71049)
(32.4534 1.25927e-16 -4.55778)
(-45.0642 0 12.5079)
(-54.8667 0 7.49728)
(47.7926 -2.40861e-16 -13.9745)
(68.3251 0 -11.1356)
(-21.5602 -1.71545e-16 8.69398)
(-58.3235 0 12.2624)
(-42.5282 2.62154e-17 6.98223)
(-23.9863 -4.44748e-17 3.39331)
(-5.80217 0 -0.020278)
(11.1757 -1.49619e-17 -2.66748)
(6.60387 0 -1.14299)
(-0.272661 -4.07377e-22 -0.0330201)
(-0.275125 -1.15297e-21 -0.0288014)
(-0.279495 6.94412e-22 -0.0244729)
(-0.284063 3.31021e-23 -0.0169214)
(-0.286251 -6.42717e-22 -0.00555566)
(-0.284854 0 0.00672658)
(-0.280926 0 0.0164819)
(-0.276451 1.39298e-21 0.0216005)
(-0.272965 2.80607e-21 0.0213404)
(-0.270579 4.88554e-23 0.0166451)
(-0.267712 -1.48557e-21 0.0108246)
(-0.262214 1.48174e-21 0.00842687)
(-0.253259 -1.45192e-21 0.0119185)
(-0.242208 0 0.0199083)
(-0.23157 0 0.028645)
(-0.223143 1.42264e-21 0.0348716)
(-0.21699 -5.64204e-21 0.0375575)
(-0.2119 -5.61869e-21 0.0377278)
(-0.206651 0 0.0371287)
(-0.20087 0 0.0369524)
(-0.194961 0 0.0373819)
(-0.189474 1.23789e-23 0.0379233)
(-0.184601 5.34587e-21 0.0380117)
(-0.180095 -2.63411e-21 0.0374474)
(-0.175526 -5.21594e-21 0.0364708)
(-0.170661 1.03644e-20 0.0355562)
(-0.165655 -5.11316e-21 0.0350904)
(-0.160995 -5.04664e-21 0.0351739)
(-0.157151 -4.97236e-21 0.0356051)
(-0.154344 0 0.0360779)
(-0.152406 4.815e-21 0.0363582)
(-0.151042 -4.65957e-21 0.0364201)
(-0.149894 4.56118e-21 0.0363532)
(-0.148869 8.72219e-21 0.0363123)
(-0.147845 1.68312e-20 0.0363409)
(-0.146947 0 0.0364688)
(-0.14597 0 0.0366131)
(-0.145047 6.95167e-21 0.0367948)
(-0.143818 0 0.0369248)
(-0.142622 -5.85858e-21 0.0370751)
(-0.141028 -5.50618e-21 0.0371323)
(-0.139746 0 0.0372188)
(-0.138178 -1.82462e-20 0.0371748)
(-0.137506 -7.53125e-21 0.0371881)
(-0.136769 0 0.0370317)
(-0.137704 -5.95251e-21 0.0369856)
(-0.138647 -6.70091e-21 0.0367284)
(-0.142002 0 0.0366933)
(-0.145067 1.27062e-20 0.0364633)
(-0.151259 -4.10662e-21 0.0366888)
(-0.156486 -1.26425e-20 0.0367536)
(-0.165581 0 0.0375322)
(-0.172549 -4.10228e-23 0.0380792)
(-0.184187 1.04167e-20 0.0395623)
(-0.192027 0 0.0405821)
(-0.205612 0 0.0427412)
(-0.213373 -1.16979e-20 0.0440738)
(-0.228599 -2.96995e-22 0.046813)
(-0.235765 2.17165e-20 0.0482559)
(-0.252965 -4.20104e-21 0.0514858)
(-0.259536 2.07256e-20 0.0528475)
(-0.279527 7.39219e-21 0.0565399)
(-0.285675 -4.21222e-20 0.0576959)
(-0.30934 0 0.0619586)
(-0.315138 0 0.0629361)
(-0.343221 1.39383e-20 0.0680215)
(-0.34854 0 0.0689192)
(-0.381377 0 0.0750551)
(-0.385756 4.45865e-20 0.0759096)
(-0.42322 0 0.083203)
(-0.42624 -3.39879e-20 0.0840076)
(-0.468048 4.50668e-22 0.0923915)
(-0.469688 1.55677e-20 0.0930896)
(-0.515442 0 0.102271)
(-0.516081 0 0.102836)
(-0.565972 0 0.112624)
(-0.567042 -7.34527e-20 0.113186)
(-0.621113 0 0.123292)
(-0.623984 1.23225e-19 0.124154)
(-0.682283 3.1904e-19 0.134384)
(-0.686794 0 0.135726)
(-0.748535 0 0.146052)
(-0.754698 0 0.148292)
(-0.820612 9.64741e-22 0.158624)
(-0.823198 1.82833e-19 0.161092)
(-0.896776 -4.24277e-19 0.172034)
(-0.891116 2.58761e-19 0.173514)
(-0.971254 2.42632e-19 0.18566)
(-0.949931 0 0.184213)
(-1.05067 2.25862e-19 0.199938)
(-0.98527 0 0.191715)
(-1.12674 4.41925e-19 0.213788)
(-1.02669 0 0.198419)
(-1.16517 0 0.224313)
(-1.07317 0 0.204514)
(-1.23312 2.49283e-18 0.23884)
(-1.01701 8.51722e-18 0.193874)
(-1.28779 0 0.240993)
(-0.967516 -1.39206e-17 0.186271)
(-1.27332 9.29664e-18 0.275229)
(-1.80934 3.6231e-17 0.345371)
(-1.03424 3.99573e-17 0.159563)
(-1.2448 0 0.39772)
(-4.29373 0 0.519803)
(7.66757 0 -2.12092)
(5.79842 0 0.174309)
(-21.3426 1.18424e-16 4.355)
(9.67998 -1.57374e-19 -4.8952)
(33.4281 -2.35203e-16 -3.95279)
(-52.6419 0 15.2708)
(-56.8218 0 6.47248)
(55.4694 1.12286e-16 -17.1691)
(71.213 0 -10.6648)
(-29.5613 1.60309e-16 10.8219)
(-65.2474 0 13.8295)
(-46.4149 -4.89642e-17 7.22292)
(-26.2318 0 3.32611)
(-5.33187 0 -0.576621)
(13.2553 1.39768e-17 -3.22576)
(7.22231 0 -1.18325)
(-0.26864 0 -0.0320943)
(-0.270917 5.32115e-22 -0.0277758)
(-0.274151 0 -0.0234196)
(-0.277408 5.99428e-22 -0.0171649)
(-0.279065 1.1757e-21 -0.00825362)
(-0.277918 0 0.00170169)
(-0.274413 -6.31937e-22 0.0103707)
(-0.270133 0 0.0160537)
(-0.26681 -2.73847e-23 0.0175211)
(-0.265554 2.62349e-21 0.014634)
(-0.265959 0 0.00955426)
(-0.265924 0 0.00659015)
(-0.263185 1.3656e-21 0.00915605)
(-0.257134 0 0.0170312)
(-0.249215 0 0.02682)
(-0.241635 0 0.0346759)
(-0.235651 2.64298e-21 0.0387004)
(-0.230935 2.63481e-21 0.0394973)
(-0.226356 2.60711e-21 0.0390095)
(-0.22117 0 0.0388753)
(-0.215495 0 0.0395477)
(-0.209924 2.54006e-21 0.0405042)
(-0.204887 -2.50695e-21 0.0409971)
(-0.200348 2.47744e-21 0.0406805)
(-0.195909 4.90569e-21 0.0397817)
(-0.191192 -9.68708e-21 0.0388809)
(-0.18616 2.89919e-23 0.0384998)
(-0.18123 4.74634e-21 0.0388085)
(-0.176962 4.67641e-21 0.0395682)
(-0.173753 0 0.0403781)
(-0.171545 0 0.0409191)
(-0.170076 4.38201e-21 0.0411503)
(-0.168928 0 0.0411911)
(-0.167971 -8.20223e-21 0.0412546)
(-0.167032 -7.89268e-21 0.0414056)
(-0.166284 7.41645e-21 0.0416878)
(-0.165502 0 0.0419903)
(-0.164879 -6.5365e-21 0.0423429)
(-0.163973 -6.12301e-21 0.0426304)
(-0.163202 1.8142e-23 0.0429578)
(-0.162022 1.03342e-20 0.0431795)
(-0.161298 0 0.0434641)
(-0.160253 8.56255e-21 0.0435963)
(-0.160293 0 0.0438241)
(-0.160177 0 0.0438374)
(-0.161982 0 0.0440002)
(-0.163624 2.57444e-23 0.0438746)
(-0.168015 0 0.0440192)
(-0.17183 -5.95546e-21 0.0438709)
(-0.179239 7.71892e-21 0.0442636)
(-0.185257 1.18804e-20 0.044384)
(-0.195813 0 0.0453507)
(-0.203632 -1.19395e-20 0.045948)
(-0.217052 -9.83972e-21 0.0476675)
(-0.225798 0 0.0487464)
(-0.241553 0 0.0512191)
(-0.250248 1.09884e-20 0.0526377)
(-0.268104 4.28386e-22 0.0558041)
(-0.276192 -1.02179e-20 0.0573724)
(-0.296567 3.62003e-21 0.0611659)
(-0.304001 0 0.0626787)
(-0.327804 0 0.0670731)
(-0.334691 -1.03682e-23 0.068375)
(-0.362919 7.51957e-21 0.0734859)
(-0.369274 0 0.074586)
(-0.402812 -6.50765e-21 0.0806939)
(-0.408469 0 0.0816816)
(-0.447811 0 0.0890483)
(-0.45229 0 0.0899584)
(-0.497467 0 0.0987326)
(-0.500349 4.56734e-22 0.0995706)
(-0.551206 5.26125e-22 0.10971)
(-0.552494 -1.37055e-20 0.110427)
(-0.60867 0 0.121616)
(-0.608809 9.80588e-21 0.122216)
(-0.670506 0 0.134248)
(-0.671032 6.88766e-20 0.134872)
(-0.738215 1.04524e-19 0.147382)
(-0.740628 1.18293e-19 0.148374)
(-0.813182 -1.50425e-19 0.161063)
(-0.817421 0 0.162644)
(-0.894458 1.95427e-19 0.175448)
(-0.900674 0 0.178136)
(-0.982757 -2.14636e-19 0.190851)
(-0.985536 1.72658e-19 0.19398)
(-1.07625 3.97464e-19 0.207196)
(-1.07028 0 0.209465)
(-1.16896 -4.53286e-19 0.223936)
(-1.14573 0 0.222968)
(-1.26752 2.06707e-19 0.241604)
(-1.1972 0 0.233394)
(-1.364 4.03871e-19 0.258839)
(-1.2539 0 0.243003)
(-1.42439 -3.809e-18 0.272878)
(-1.3151 -5.89336e-18 0.252185)
(-1.51492 -2.33279e-18 0.293039)
(-1.27004 -7.96959e-18 0.240625)
(-1.59166 0 0.298303)
(-1.2349 2.59872e-17 0.238477)
(-1.61809 -1.74505e-17 0.352103)
(-2.13849 0 0.407647)
(-1.32349 -3.73696e-17 0.202372)
(-1.57098 0 0.508516)
(-4.63106 0 0.431315)
(8.2986 1.25582e-16 -2.41831)
(5.05799 0 0.764914)
(-22.7721 0 4.6047)
(11.2964 -1.96135e-16 -6.10372)
(33.121 2.19277e-16 -2.91793)
(-59.0267 6.29916e-17 17.9385)
(-56.953 0 4.80008)
(61.6484 0 -20.241)
(71.0306 0 -9.33978)
(-37.3129 0 15.4946)
(-70.6152 5.04552e-17 15.0616)
(-49.2015 2.2859e-17 7.16241)
(-27.875 0 3.05764)
(-4.55462 0 -1.27571)
(15.1902 0 -3.77698)
(7.63146 0 -1.15891)
(-0.264504 -3.14749e-22 -0.0309781)
(-0.266712 0 -0.0269139)
(-0.269374 -5.56958e-22 -0.0227276)
(-0.271756 0 -0.0174247)
(-0.272931 -5.36679e-22 -0.0103496)
(-0.272014 0 -0.00232474)
(-0.269119 5.93945e-22 0.00518459)
(-0.265306 -1.16942e-21 0.0110087)
(-0.26192 -2.37084e-21 0.0140187)
(-0.260351 -3.02964e-23 0.0133012)
(-0.261273 0 0.00987477)
(-0.263635 0 0.00710308)
(-0.265043 0 0.00859983)
(-0.263514 0 0.0152802)
(-0.258945 0 0.0247891)
(-0.252985 0 0.0334286)
(-0.247534 -2.43282e-21 0.0386335)
(-0.243302 2.43147e-21 0.0402626)
(-0.23967 -2.44963e-21 0.0400555)
(-0.235696 0 0.0399608)
(-0.23106 0 0.0408041)
(-0.226152 -2.36605e-21 0.0421716)