/*--------------------------------*- C++ -*----------------------------------*\
| =========                 |                                                 |
| \\      /  F ield         | OpenFOAM: The Open Source CFD Toolbox           |
|  \\    /   O peration     | Version:  2412                                  |
|   \\  /    A nd           | Website:  www.openfoam.com                      |
|    \\/     M anipulation  |                                                 |
\*---------------------------------------------------------------------------*/
FoamFile
{
    version     2.0;
    format      ascii;
    arch        "LSB;label=32;scalar=64";
    class       volScalarField;
    location    "0.645";
    object      p;
}
// * * * * * * * * * * * * * * * * * * * * * * * * * * * * * * * * * * * * * //

dimensions      [0 2 -2 0 0 0 0];

internalField   nonuniform List<scalar> 
12600
(
0.137272
-154.609
-204.738
-201.582
-189.2
-177.681
-167.578
-158.54
-150.349
-142.844
-135.899
-129.418
-123.328
-117.573
-112.107
-106.891
-101.896
-97.0947
-92.4664
-87.9922
-83.6562
-79.4447
-75.3455
-71.3482
-67.4435
-63.6232
-59.8798
-56.2067
-52.598
-49.0484
-45.5529
-42.1071
-38.7068
-35.3483
-32.0281
-28.7429
-25.4899
-22.2662
-19.0691
-15.8963
-12.7454
-9.61418
-6.50065
-3.40283
-0.318841
2.75307
5.81465
8.86747
11.9132
14.9531
17.9889
21.0217
24.053
27.0838
30.1157
33.1491
36.186
39.2264
42.2723
45.3231
48.3814
51.4457
54.5192
57.5993
60.6901
63.7874
66.8969
70.0118
73.1401
76.2719
79.4182
82.5648
85.7267
88.8844
92.0579
95.2213
98.4007
101.563
104.74
107.892
111.059
114.19
117.333
120.433
123.54
126.596
129.653
132.652
135.648
138.578
141.502
144.353
147.204
149.964
152.751
155.419
158.15
160.736
163.424
165.958
168.638
171.351
173.608
176.858
179.168
179.53
184.401
191.398
184.26
192.03
215.315
211.709
194.455
205.91
233.505
254.549
263.322
267.389
264.62
262.147
-24.0751
-123.774
-171.256
-180.944
-177.793
-171.109
-163.412
-155.689
-148.302
-141.326
-134.749
-128.534
-122.642
-117.037
-111.687
-106.562
-101.638
-96.8946
-92.3126
-87.8761
-83.5708
-79.3845
-75.3061
-71.3259
-67.4354
-63.6268
-59.8931
-56.2281
-52.6262
-49.082
-45.591
-42.1489
-38.7516
-35.3954
-32.0771
-28.7935
-25.5415
-22.3186
-19.1221
-15.9495
-12.7987
-9.66749
-6.55378
-3.45567
-0.371288
2.70109
5.76321
8.81661
11.8629
14.9035
17.94
20.9735
24.0056
27.0371
30.0697
33.104
36.1416
39.1827
42.2294
45.2809
48.34
51.405
54.4792
57.56
60.6516
63.7495
66.8597
69.9753
73.1043
76.2368
79.3838
82.531
85.6936
88.8519
92.026
95.1902
98.3701
101.533
104.711
107.864
111.031
114.163
117.307
120.407
123.515
126.571
129.629
132.629
135.625
138.555
141.481
144.332
147.183
149.945
152.732
155.401
158.132
160.718
163.407
165.942
168.621
171.336
173.591
176.84
179.163
179.521
184.36
191.4
184.275
191.931
215.233
211.779
194.504
205.812
233.35
254.445
263.274
267.379
264.636
262.155
-40.9433
-102.403
-145.222
-162.73
-166.109
-163.533
-158.442
-152.339
-145.951
-139.615
-133.47
-127.558
-121.887
-116.447
-111.221
-106.194
-101.347
-96.6637
-92.1303
-87.7329
-83.4595
-79.2993
-75.2423
-71.2798
-67.4038
-63.6073
-59.8836
-56.2269
-52.6318
-49.0934
-45.6071
-42.1688
-38.7747
-35.4211
-32.1049
-28.8229
-25.5722
-22.3503
-19.1545
-15.9825
-12.832
-9.7009
-6.58722
-3.48903
-0.40447
2.66817
5.73061
8.78438
11.8311
14.8722
17.9092
20.9431
23.9757
27.0078
30.041
33.0758
36.114
39.1557
42.2029
45.255
48.3146
51.3801
54.4549
57.5362
60.6283
63.7268
66.8375
69.9536
73.0831
76.2161
79.3635
82.5112
85.6743
88.8331
92.0077
95.1722
98.3527
101.516
104.695
107.848
111.015
114.148
117.292
120.393
123.501
126.558
129.616
132.616
135.613
138.544
141.469
144.321
147.173
149.935
152.722
155.391
158.123
160.709
163.398
165.933
168.612
171.328
173.582
176.831
179.16
179.513
184.34
191.403
184.285
191.883
215.191
211.819
194.531
205.76
233.272
254.392
263.249
267.374
264.642
262.157
-48.915
-88.7226
-124.168
-144.725
-152.982
-154.328
-152.071
-147.904
-142.803
-137.327
-131.769
-126.268
-120.892
-115.669
-110.608
-105.707
-100.958
-96.3534
-91.8824
-87.5354
-83.3031
-79.1763
-75.147
-71.2074
-67.3504
-63.5697
-59.8592
-56.2136
-52.6277
-49.097
-45.6172
-42.1844
-38.7947
-35.445
-32.1318
-28.8524
-25.6039
-22.3836
-19.1891
-16.0182
-12.8685
-9.73804
-6.62477
-3.52684
-0.442409
2.63021
5.69273
8.74667
11.7937
14.835
17.8723
20.9067
23.9397
26.9722
30.0058
33.0411
36.0798
39.1219
42.1696
45.2223
48.2824
51.3485
54.4238
57.5056
60.5982
63.6972
66.8084
69.925
73.055
76.1885
79.3365
82.4847
85.6482
88.8075
91.9826
95.1477
98.3286
101.492
104.672
107.825
110.993
114.126
117.271
120.372
123.481
126.538
129.597
132.597
135.595
138.526
141.452
144.304
147.157
149.919
152.707
155.377
158.108
160.695
163.384
165.92
168.598
171.316
173.568
176.817
179.157
179.503
184.308
191.408
184.291
191.797
215.137
211.881
194.558
205.667
233.148
254.315
263.215
267.369
264.656
262.163
-54.019
-80.5236
-107.455
-127.152
-138.298
-143.095
-143.772
-141.86
-138.399
-134.086
-129.349
-124.435
-119.484
-114.574
-109.747
-105.024
-100.414
-95.9173
-91.5321
-87.254
-83.0773
-78.9959
-75.0038
-71.0949
-67.2634
-63.5038
-59.811
-56.1802
-52.6067
-49.0865
-45.6154
-42.1899
-38.8064
-35.4618
-32.153
-28.8772
-25.6316
-22.4138
-19.2213
-16.052
-12.9036
-9.77413
-6.66162
-3.56425
-0.480187
2.59221
5.65464
8.7086
11.7557
14.7972
17.8348
20.8695
23.9029
26.9358
29.9699
33.0056
36.0448
39.0875
42.1357
45.1889
48.2495
51.3162
54.392
57.4744
60.5676
63.6671
66.7789
69.896
73.0266
76.1607
79.3092
82.4579
85.622
88.7819
91.9575
95.1232
98.3047
101.469
104.649
107.803
110.971
114.105
117.25
120.352
123.461
126.519
129.579
132.58
135.578
138.509
141.436
144.289
147.142
149.904
152.693
155.363
158.095
160.682
163.372
165.907
168.585
171.305
173.555
176.804
179.153
179.491
184.278
191.416
184.294
191.718
215.087
211.944
194.578
205.577
233.032
254.244
263.183
267.366
264.667
262.167
-57.3569
-75.5203
-95.1467
-112.046
-123.91
-130.861
-133.944
-134.22
-132.569
-129.662
-125.981
-121.853
-117.488
-113.017
-108.523
-104.054
-99.6402
-95.2969
-91.0328
-86.851
-82.7517
-78.7331
-74.7922
-70.9253
-67.1285
-63.3978
-59.729
-56.1181
-52.5615
-49.0553
-45.5962
-42.1806
-38.8056
-35.4681
-32.1652
-28.8944
-25.653
-22.4387
-19.2492
-16.0822
-12.9358
-9.80796
-6.69674
-3.60037
-0.51708
2.55475
5.61679
8.67051
11.7175
14.759
17.7967
20.8315
23.8652
26.8984
29.9328
32.9689
36.0085
39.0516
42.1003
45.154
48.2151
51.2823
54.3587
57.4416
60.5353
63.6354
66.7477
69.8654
72.9965
76.1311
79.2802
82.4295
85.5941
88.7545
91.9308
95.0969
98.279
101.444
104.624
107.779
110.948
114.082
117.228
120.331
123.44
126.499
129.559
132.56
135.559
138.491
141.418
144.271
147.125
149.888
152.677
155.347
158.08
160.668
163.357
165.893
168.57
171.292
173.54
176.79
179.15
179.477
184.246
191.425
184.292
191.622
215.04
212.017
194.59
205.463
232.901
254.168
263.151
267.364
264.681
262.172
-59.0256
-72.0549
-86.3983
-100.112
-111.216
-118.948
-123.528
-125.519
-125.518
-124.054
-121.561
-118.377
-114.75
-110.853
-106.805
-102.683
-98.5411
-94.4122
-90.3181
-86.272
-82.2818
-78.3513
-74.4821
-70.6739
-66.9254
-63.2346
-59.599
-56.0158
-52.4823
-48.9955
-45.5527
-42.1509
-38.7874
-35.4597
-32.1651
-28.9012
-25.6658
-22.4564
-19.271
-16.1076
-12.9641
-9.83859
-6.72934
-3.63457
-0.552573
2.51824
5.5795
8.63263
11.6792
14.7205
17.758
20.7928
23.8265
26.8599
29.8945
32.9309
35.9709
39.0144
42.0635
45.1176
48.1792
51.2468
54.3237
57.4071
60.5014
63.602
66.7148
69.8331
72.9648
76.0999
79.2496
82.3994
85.5647
88.7256
91.9024
95.0692
98.2518
101.417
104.598
107.754
110.923
114.058
117.204
120.308
123.418
126.477
129.538
132.54
135.539
138.472
141.399
144.253
147.107
149.871
152.66
155.331
158.064
160.652
163.342
165.879
168.555
171.279
173.525
176.776
179.146
179.46
184.212
191.439
184.284
191.517
214.996
212.099
194.592
205.335
232.76
254.09
263.12
267.363
264.696
262.176
-59.531
-69.3107
-80.047
-90.9129
-100.581
-108.148
-113.389
-116.484
-117.753
-117.549
-116.205
-114.012
-111.212
-107.992
-104.491
-100.809
-97.021
-93.1763
-89.3112
-85.4503
-81.6102
-77.8019
-74.0325
-70.3063
-66.6252
-62.9902
-59.4008
-55.8562
-52.3549
-48.8951
-45.4749
-42.0922
-38.7448
-35.4306
-32.1476
-28.8934
-25.6661
-22.4637
-19.2842
-16.1257
-12.9864
-9.86438
-6.75803
-3.66568
-0.585668
2.48353
5.54348
8.59558
11.6414
14.682
17.7191
20.7537
23.7872
26.8206
29.8553
32.8918
35.932
38.9757
42.0252
45.0796
48.1417
51.2097
54.2871
57.371
60.4658
63.5669
66.6803
69.7991
72.9314
76.067
79.2173
82.3677
85.5335
88.6951
91.8725
95.0399
98.2232
101.389
104.571
107.727
110.897
114.033
117.179
120.283
123.394
126.454
129.515
132.518
135.518
138.451
141.38
144.234
147.089
149.853
152.643
155.314
158.048
160.636
163.326
165.863
168.539
171.264
173.508
176.761
179.143
179.439
184.177
191.456
184.269
191.398
214.957
212.191
194.582
205.193
232.607
254.008
263.088
267.364
264.712
262.181
-59.3195
-66.8978
-75.147
-83.7205
-91.8287
-98.7286
-104.038
-107.695
-109.81
-110.575
-110.21
-108.938
-106.961
-104.454
-101.558
-98.3844
-95.0179
-91.5223
-87.9452
-84.3218
-80.6777
-77.0313
-73.3959
-69.7805
-66.1916
-62.6331
-59.1076
-55.6163
-52.1597
-48.7374
-45.3487
-41.9925
-38.6676
-35.3723
-32.1053
-28.8647
-25.6489
-22.4563
-19.285
-16.1335
-13
-9.88304
-6.78089
-3.69206
-0.614985
2.45177
5.50971
8.56017
11.6046
14.6443
17.6805
20.7145
23.7476
26.7807
29.8152
32.8517
35.8919
38.9358
41.9855
45.0402
48.1026
51.171
54.2488
57.3331
60.4284
63.53
66.644
69.7633
72.8961
76.0324
79.1832
82.3343
85.5007
88.6629
91.8409
95.0089
98.1928
101.36
104.542
107.698
110.869
114.006
117.153
120.258
123.369
126.43
129.492
132.495
135.495
138.43
141.359
144.214
147.069
149.833
152.624
155.296
158.03
160.619
163.309
165.846
168.522
171.249
173.49
176.747
179.139
179.415
184.139
191.478
184.245
191.264
214.923
212.294
194.556
204.999
232.44
253.923
263.055
267.366
264.729
262.185
-58.6345
-64.6227
-71.1025
-77.9173
-84.6094
-90.6508
-95.6665
-99.4824
-102.074
-103.507
-103.905
-103.412
-102.182
-100.36
-98.0746
-95.435
-92.5292
-89.4274
-86.185
-82.8447
-79.4394
-75.9942
-72.528
-69.0552
-65.5862
-62.1287
-58.6882
-55.2687
-51.8725
-48.5013
-45.1557
-41.8361
-38.5421
-35.2731
-32.0282
-28.8065
-25.6068
-22.4277
-19.2681
-16.1264
-13.0013
-9.89133
-6.79517
-3.7114
-0.638584
2.42459
5.47955
8.52753
11.5699
14.6079
17.6428
20.6757
23.708
26.7404
29.7746
32.8108
35.8508
38.8947
41.9444
44.9993
48.0619
51.1306
54.2088
57.2935
60.3892
63.4913
66.6057
69.7256
72.859
75.9958
79.1472
82.2989
85.4659
88.6287
91.8074
94.9761
98.1607
101.328
104.511
107.668
110.84
113.977
117.125
120.231
123.343
126.404
129.467
132.471
135.472
138.407
141.336
144.192
147.048
149.813
152.604
155.277
158.011
160.601
163.291
165.828
168.503
171.233
173.47
176.732
179.136
179.387
184.1
191.505
184.212
191.112
214.896
212.41
194.514
204.8
232.257
253.832
263.021
267.369
264.748
262.19
-57.606
-62.4012
-67.5811
-73.0626
-78.5654
-83.7355
-88.2717
-91.9785
-94.761
-96.6029
-97.5461
-97.6707
-97.0762
-95.871
-94.162
-92.0465
-89.6089
-86.9202
-84.0389
-81.0121
-77.8778
-74.666
-71.4003
-68.0994
-64.7776
-61.4459
-58.1131
-54.7854
-51.4677
-48.1634
-44.875
-41.6041
-38.3517
-35.1182
-31.9037
-28.7078
-25.5301
-22.3699
-19.2262
-16.0982
-12.9848
-9.88478
-6.79707
-3.72047
-0.653735
2.4043
5.45492
8.49926
11.5386
14.5741
17.6069
20.6381
23.669
26.7004
29.7337
32.7693
35.8089
38.8525
41.9021
44.9569
48.0196
51.0885
54.1669
57.2519
60.348
63.4505
66.5654
69.6858
72.8197
75.9571
79.1091
82.2614
85.4291
88.5926
91.772
94.9413
98.1266
101.295
104.478
107.637
110.809
113.947
117.096
120.202
123.315
126.377
129.44
132.445
135.447
138.383
141.313
144.169
147.026
149.792
152.583
155.256
157.991
160.581
163.272
165.809
168.484
171.216
173.449
176.717
179.133
179.354
184.058
191.539
184.168
190.941
214.879
212.54
194.453
204.565
232.058
253.734
262.984
267.374
264.767
262.194
-56.3127
-60.1941
-64.3945
-68.8565
-73.3917
-77.7648
-81.7575
-85.1982
-87.9703
-90.0116
-91.3092
-91.8902
-91.8084
-91.1334
-89.9442
-88.3205
-86.337
-84.0604
-81.5485
-78.8501
-76.0059
-73.049
-70.0067
-66.9008
-63.7489
-60.5652
-57.3607
-54.1444
-50.9232
-47.7024
-44.4861
-41.2775
-38.0788
-34.8916
-31.7169
-28.5554
-25.4072
-22.2723
-19.1505
-16.0412
-12.9437
-9.85744
-6.78146
-3.71488
-0.656692
2.39407
5.43851
8.47762
11.5126
14.5443
17.5741
20.6027
23.6315
26.6611
29.693
32.7275
35.7663
38.8093
41.8585
44.913
47.9756
51.0445
54.123
57.2083
60.3046
63.4075
66.5229
69.6437
72.7782
75.9161
79.0688
82.2216
85.39
88.5542
91.7343
94.9044
98.0904
101.259
104.444
107.603
110.776
113.914
117.064
120.171
123.285
126.348
129.412
132.418
135.42
138.357
141.288
144.145
147.002
149.769
152.561
155.234
157.97
160.56
163.252
165.788
168.464
171.198
173.426
176.702
179.131
179.316
184.014
191.58
184.111
190.748
214.873
212.684
194.375
204.299
231.841
253.627
262.943
267.378
264.787
262.198
-54.8151
-57.9857
-61.4295
-65.0992
-68.8549
-72.5368
-75.9942
-79.0939
-81.7257
-83.8102
-85.3034
-86.1952
-86.5032
-86.2632
-85.5253
-84.3475
-82.7904
-80.9122
-78.7663
-76.4
-73.8546
-71.1649
-68.3604
-65.4656
-62.5004
-59.4816
-56.4225
-53.3342
-50.2253
-47.1031
-43.9733
-40.8403
-37.7077
-34.5781
-31.4537
-28.3359
-25.2257
-22.1238
-19.0305
-15.9459
-12.8698
-9.80201
-6.74193
-3.68903
-0.642588
2.3981
5.43393
8.46568
11.4944
14.5208
17.5461
20.5709
23.5966
26.6236
29.6534
32.6862
35.7236
38.7655
41.8138
44.8678
47.93
50.9986
54.0771
57.1624
60.2589
63.362
66.4778
69.599
72.734
75.8725
79.0257
82.1792
85.3483
88.5132
91.6941
94.8649
98.0518
101.222
104.407
107.567
110.74
113.88
117.031
120.139
123.253
126.317
129.382
132.389
135.392
138.33
141.262
144.119
146.978
149.745
152.538
155.212
157.948
160.538
163.231
165.766
168.442
171.179
173.402
176.686
179.129
179.271
183.967
191.629
184.041
190.531
214.879
212.845
194.278
204.004
231.607
253.51
262.896
267.381
264.808
262.203
-53.1638
-55.7704
-58.6165
-61.6595
-64.7868
-67.8845
-70.8507
-73.5886
-76.0069
-78.0272
-79.5925
-80.6708
-81.254
-81.3522
-80.9897
-80.2025
-79.0343
-77.5312
-75.7393
-73.7014
-71.457
-69.0408
-66.4832
-63.8101
-61.0437
-58.2023
-55.3015
-52.3541
-49.3706
-46.3598
-43.3287
-40.2832
-37.2279
-34.1667
-31.1026
-28.0379
-24.9744
-21.9135
-18.8561
-15.803
-12.7543
-9.71045
-6.67119
-3.63637
-0.605598
2.42153
5.44568
8.46736
11.4874
14.5065
17.5255
20.5449
23.5661
26.5893
29.6159
32.646
35.6813
38.7214
41.7684
44.8213
47.8827
50.9508
54.029
57.114
60.2106
63.3138
66.4298
69.5513
72.6868
75.8258
78.9797
82.1338
85.3036
88.4692
91.6509
94.8226
98.0103
101.181
104.367
107.528
110.703
113.843
116.995
120.104
123.22
126.284
129.351
132.358
135.362
138.301
141.234
144.092
146.951
149.719
152.513
155.187
157.924
160.515
163.208
165.743
168.419
171.158
173.375
176.671
179.127
179.22
183.919
191.686
183.957
190.291
214.898
213.021
194.166
203.68
231.353
253.38
262.841
267.381
264.829
262.208
-51.3875
-53.5405
-55.9076
-58.4484
-61.0664
-63.6761
-66.2082
-68.5959
-70.7686
-72.658
-74.2061
-75.3713
-76.1298
-76.474
-76.4085
-75.9499
-75.1245
-73.965
-72.5072
-70.7875
-68.8409
-66.7001
-64.3947
-61.9511
-59.3924
-56.7384
-54.0062
-51.2103
-48.3626
-45.4735
-42.5514
-39.6033
-36.6352
-33.6518
-30.657
-27.654
-24.6454
-21.6332
-18.619
-15.6041
-12.5892
-9.57508
-6.56198
-3.55014
-0.539487
2.47007
5.47889
8.48725
11.4958
14.5048
17.5152
20.5273
23.5422
26.56
29.582
32.6083
35.6405
38.6779
41.7228
44.774
47.8341
50.9011
53.9785
57.0631
60.1594
63.2625
66.3786
69.5003
72.6362
75.7756
78.93
82.0848
85.2554
88.4217
91.6043
94.7768
97.9656
101.137
104.324
107.486
110.662
113.804
116.957
120.067
123.183
126.249
129.317
132.325
135.331
138.27
141.204
144.063
146.923
149.692
152.486
155.161
157.899
160.49
163.183
165.718
168.394
171.136
173.348
176.655
179.126
179.16
183.865
191.752
183.859
190.02
214.934
213.213
194.04
203.335
231.078
253.234
262.772
267.374
264.85
262.214
-49.5073
-51.2923
-53.2709
-55.4046
-57.6068
-59.8098
-61.9665
-64.0318
-65.9538
-67.6769
-69.1487
-70.3262
-71.1784
-71.6864
-71.8424
-71.6474
-71.1127
-70.2575
-69.1066
-67.6877
-66.0298
-64.1615
-62.1101
-59.901
-57.557
-55.0988
-52.5443
-49.9091
-47.2066
-44.4484
-41.6443
-38.8024
-35.9298
-33.0323
-30.1147
-27.1811
-24.2346
-21.2782
-18.3139
-15.3436
-12.3685
-9.38981
-6.40824
-3.42437
-0.438485
2.54918
5.53872
8.53013
11.5238
14.5198
17.5189
20.5212
23.5276
26.538
29.5539
32.5748
35.6024
38.6361
41.6778
44.7263
47.7843
50.8497
53.9258
57.0094
60.1051
63.2078
66.3237
69.4454
72.5816
75.7212
78.8762
82.0315
85.2029
88.37
91.5535
94.727
97.9168
101.089
104.278
107.441
110.618
113.761
116.915
120.026
123.144
126.212
129.28
132.29
135.297
138.237
141.172
144.033
146.894
149.663
152.458
155.134
157.873
160.464
163.158
165.692
168.369
171.112
173.318
176.639
179.124
179.096
183.812
191.825
183.75
189.736
214.973
213.416
193.912
202.97
230.783
253.067
262.685
267.358
264.868
262.222
-47.5402
-49.0241
-50.6845
-52.4846
-54.3447
-56.2087
-58.0439
-59.8211
-61.5032
-63.0466
-64.4072
-65.5452
-66.4281
-67.0319
-67.3409
-67.3463
-67.0475
-66.452
-65.5737
-64.4314
-63.0466
-61.4423
-59.6422
-57.669
-55.5445
-53.2886
-50.9196
-48.4538
-45.9054
-43.287
-40.6095
-37.8822
-35.1132
-32.3092
-29.4761
-26.6187
-23.7412
-20.8468
-17.9385
-15.0185
-12.0888
-9.15081
-6.20581
-3.2547
-0.298128
2.66338
5.62961
8.6003
11.5756
14.5554
17.5402
20.5299
23.5253
26.5262
29.5337
32.5474
35.5688
38.5972
41.6345
44.6793
47.7342
50.797
53.8711
56.9531
60.0476
63.1493
66.2648
69.3862
72.5223
75.6621
78.8175
81.9733
85.1454
88.3132
91.4977
94.6722
97.8632
101.037
104.227
107.391
110.57
113.714
116.87
119.982
123.102
126.171
129.24
132.252
135.26
138.202
141.138
144
146.862
149.632
152.428
155.105
157.844
160.436
163.13
165.664
168.341
171.087
173.286
176.623
179.122
179.023
183.753
191.903
183.632
189.427
215.023
213.631
193.783
202.598
230.47
252.875
262.575
267.326
264.884
262.232
-45.4996
-46.7353
-48.1328
-49.6569
-51.2332
-52.8137
-54.3753
-55.8995
-57.3605
-58.7251
-59.9574
-61.023
-61.8914
-62.5376
-62.9418
-63.0899
-62.9735
-62.5908
-61.9464
-61.0503
-59.9165
-58.5618
-57.0048
-55.2646
-53.3605
-51.3111
-49.1338
-46.8447
-44.4586
-41.9886
-39.4463
-36.8421
-34.1848
-31.4822
-28.7409
-25.9667
-23.1645
-20.3383
-17.4918
-14.6277
-11.7485
-8.85619
-5.95245
-3.03858
-0.115578
2.8157
5.75477
8.70109
11.6546
14.6149
17.5823
20.5566
23.5383
26.5271
29.524
32.5284
35.5418
38.5631
41.5944
44.634
47.6845
50.7436
53.8148
56.8942
59.9868
63.087
66.2015
69.322
72.4578
75.5974
78.7531
81.9091
85.0819
88.2504
91.4359
94.6114
97.8037
100.979
104.17
107.336
110.516
113.662
116.819
119.934
123.055
126.126
129.197
132.21
135.22
138.164
141.101
143.964
146.828
149.599
152.396
155.074
157.814
160.407
163.102
165.634
168.312
171.061
173.252
176.605
179.121
178.944
183.691
191.986
183.509
189.104
215.075
213.854
193.662
202.23
230.138
252.651
262.433
267.272
264.897
262.247
-43.3957
-44.4254
-45.604
-46.8981
-48.2377
-49.5802
-50.909
-52.2132
-53.4753
-54.6702
-55.7695
-56.7443
-57.5681
-58.217
-58.6705
-58.9122
-58.929
-58.713
-58.2617
-57.5776
-56.6677
-55.5425
-54.2148
-52.6997
-51.0127
-49.1702
-47.1879
-45.0812
-42.8643
-40.5504
-38.1516
-35.6788
-33.1415
-30.5482
-27.9065
-25.2228
-22.5028
-19.7513
-16.9724
-14.1698
-11.3464
-8.50469
-5.6468
-2.77452
0.110827
3.008
5.91623
8.83467
11.763
14.7007
17.6477
20.6037
23.569
26.5432
29.5271
32.52
35.5232
38.5356
41.559
44.5918
47.6365
50.6906
53.7575
56.8334
59.9231
63.021
66.1336
69.2528
72.3877
75.5266
78.6821
81.8382
85.0114
88.1805
91.367
94.5434
97.7371
100.913
104.106
107.274
110.456
113.604
116.763
119.88
123.003
126.076
129.149
132.164
135.176
138.121
141.061
143.925
146.791
149.563
152.362
155.041
157.782
160.375
163.071
165.603
168.281
171.033
173.216
176.585
179.119
178.86
183.624
192.071
183.388
188.772
215.123
214.078
193.564
201.883
229.79
252.388
262.25
267.187
264.9
262.268
-41.2369
-42.0949
-43.0901
-44.191
-45.3317
-46.4736
-47.6045
-48.7185
-49.8041
-50.8428
-51.8119
-52.6881
-53.4489
-54.0732
-54.5414
-54.8367
-54.9443
-54.8527
-54.5546
-54.0468
-53.3304
-52.41
-51.2931
-49.9898
-48.5121
-46.8728
-45.0854
-43.1636
-41.1206
-38.9692
-36.7211
-34.3875
-31.9783
-29.5025
-26.9682
-24.3827
-21.7521
-19.0821
-16.3774
-13.6423
-10.8802
-8.09429
-5.2871
-2.46087
0.382619
3.24178
6.11549
9.0026
11.9025
14.8144
17.7382
20.6731
23.6194
26.5765
29.545
32.5241
35.515
38.5164
41.5301
44.5543
47.5916
50.639
53.7004
56.7714
59.8571
62.9514
66.0614
69.1783
72.3116
75.4493
78.6041
81.7597
84.9331
88.1024
91.2897
94.4669
97.662
100.84
104.034
107.204
110.388
113.538
116.699
119.818
122.944
126.019
129.095
132.113
135.127
138.075
141.016
143.883
146.751
149.525
152.326
155.005
157.748
160.342
163.039
165.571
168.248
171.004
173.18
176.563
179.116
178.775
183.554
192.153
183.28
188.443
215.157
214.293
193.505
201.578
229.431
252.08
262.016
267.061
264.895
262.297
-39.03
-39.744
-40.5848
-41.5226
-42.4953
-43.4673
-44.4295
-45.3795
-46.3101
-47.2075
-48.054
-48.8307
-49.5191
-50.1011
-50.5594
-50.8777
-51.0413
-51.0374
-50.8557
-50.4893
-49.9347
-49.1917
-48.2631
-47.1545
-45.8734
-44.4292
-42.8327
-41.0951
-39.228
-37.2429
-35.1512
-32.9634
-30.6895
-28.3389
-25.9199
-23.4402
-20.9067
-18.3254
-15.7018
-13.0406
-10.3459
-7.62146
-4.87022
-2.09494
0.702184
3.51914
6.35444
9.20661
12.0748
14.9578
17.8553
20.7663
23.691
26.6284
29.5792
32.5422
35.5187
38.507
41.5092
44.5229
47.551
50.5902
53.6444
56.7091
59.7895
62.8792
65.9853
69.0988
72.2296
75.3652
78.5187
81.6732
84.8462
88.0153
91.2031
94.3809
97.5772
100.756
103.953
107.124
110.31
113.462
116.627
119.748
122.877
125.955
129.034
132.055
135.072
138.023
140.967
143.837
146.707
149.483
152.286
154.967
157.712
160.307
163.005
165.538
168.214
170.975
173.144
176.536
179.113
178.693
183.479
192.228
183.198
188.128
215.166
214.487
193.501
201.337
229.065
251.718
261.721
266.883
264.882
262.337
-36.7807
-37.3737
-38.0837
-38.883
-39.7129
-40.5405
-41.3587
-42.1674
-42.9626
-43.7339
-44.4674
-45.1482
-45.7609
-46.2906
-46.7223
-47.0414
-47.234
-47.2873
-47.1898
-46.9325
-46.5089
-45.9152
-45.1502
-44.2155
-43.1148
-41.8538
-40.4401
-38.8822
-37.1897
-35.3722
-33.44
-31.4029
-29.2704
-27.0516
-24.7551
-22.3887
-19.9597
-17.4745
-14.9391
-12.3587
-9.73801
-7.08109
-4.39154
-1.67255
1.07323
3.84338
6.63601
9.44929
12.282
15.1327
18.0008
20.885
23.7854
26.7006
29.6312
32.5759
35.5358
38.5091
41.4977
44.4991
47.5162
50.5455
53.591
56.6479
59.7214
62.805
65.9061
69.0151
72.1423
75.2747
78.426
81.5785
84.7504
87.9186
91.1064
94.2843
97.4816
100.662
103.86
107.033
110.221
113.376
116.544
119.668
122.8
125.882
128.964
131.989
135.009
137.964
140.912
143.785
146.658
149.437
152.243
154.927
157.674
160.271
162.97
165.505
168.18
170.946
173.11
176.506
179.11
178.62
183.401
192.288
183.159
187.844
215.133
214.647
193.586
201.19
228.699
251.293
261.356
266.641
264.851
262.39
-34.4937
-34.9846
-35.5835
-36.2646
-36.9725
-37.6769
-38.3719
-39.0589
-39.7361
-40.3958
-41.0271
-41.6178
-42.1557
-42.6284
-43.0233
-43.3278
-43.5293
-43.6156
-43.5756
-43.3991
-43.078
-42.6061
-41.9795
-41.1962
-40.2568
-39.1638
-37.9213
-36.5351
-35.0123
-33.3607
-31.5886
-29.7046
-27.7176
-25.6361
-23.4683
-21.2219
-18.9044
-16.5225
-14.0825
-11.5899
-9.04981
-6.46692
-3.84519
-1.18827
1.50075
4.21903
6.9643
9.73432
12.5276
15.3423
18.1775
21.0317
23.9047
26.795
29.7029
32.6269
35.5679
38.524
41.497
44.4843
47.4886
50.5063
53.5415
56.5889
59.6542
62.7303
65.8249
68.9281
72.0505
75.1786
78.3265
81.4761
84.646
87.8125
90.9996
94.177
97.3746
100.555
103.755
106.929
110.12
113.278
116.448
119.576
122.712
125.797
128.884
131.913
134.938
137.897
140.85
143.726
146.604
149.387
152.197
154.884
157.634
160.234
162.935
165.474
168.145
170.918
173.081
176.472
179.108
178.566
183.322
192.328
183.182
187.609
215.035
214.759
193.774
201.169
228.345
250.8
260.912
266.323
264.804
262.456
-32.1732
-32.5777
-33.0818
-33.6616
-34.265
-34.8638
-35.453
-36.0351
-36.6097
-37.1712
-37.7107
-38.2187
-38.6851
-39.0999
-39.4526
-39.7325
-39.9285
-40.0297
-40.0256
-39.9062
-39.6626
-39.2872
-38.7743
-38.1197
-37.3212
-36.3783
-35.2926
-34.067
-32.706
-31.2151
-29.6007
-27.87
-26.0304
-24.0896
-22.0551
-19.9344
-17.7347
-15.4627
-13.1248
-10.7268
-8.27426
-5.77202
-3.2245
-0.63577
1.99071
4.65165
7.34443
10.0664
12.8158
15.5903
18.3888
21.2095
24.0519
26.9142
29.7966
32.6972
35.617
38.5536
41.509
44.4801
47.4698
50.4741
53.4972
56.5336
59.5891
62.6563
65.743
68.8391
71.9554
75.078
78.2213
81.3669
84.5337
87.6976
90.883
94.059
97.2564
100.437
103.637
106.813
110.006
113.166
116.34
119.471
122.611
125.701
128.792
131.826
134.856
137.821
140.779
143.661
146.544
149.332
152.147
154.839
157.593
160.197
162.9
165.446
168.111
170.895
173.059
176.433
179.109
178.543
183.246
192.338
183.292
187.443
214.846
214.813
194.11
201.314
228.013
250.232
260.384
265.923
264.734
262.536
-29.8228
-30.154
-30.577
-31.0696
-31.5831
-32.0911
-32.5892
-33.0807
-33.5662
-34.0414
-34.4994
-34.9323
-35.332
-35.6904
-35.9988
-36.2481
-36.4291
-36.5321
-36.5475
-36.4659
-36.2785
-35.9774
-35.5556
-35.0075
-34.3291
-33.5176
-32.5723
-31.4936
-30.2835
-28.9454
-27.4835
-25.9033
-24.2105
-22.4117
-20.5134
-18.5225
-16.4455
-14.2892
-12.0596
-9.76282
-7.40431
-4.9893
-2.52247
-0.00820305
2.54968
5.14751
7.78234
10.4511
13.1517
15.8815
18.6392
21.4224
24.2306
27.0615
29.9153
32.7896
35.6855
38.6002
41.5356
44.4884
47.4615
50.4505
53.4599
56.4836
59.5278
62.5845
65.662
68.7496
71.8584
74.9742
78.1118
81.2522
84.4149
87.575
90.7578
93.9315
97.1277
100.307
103.508
106.684
109.879
113.041
116.217
119.352
122.496
125.59
128.687
131.727
134.763
137.734
140.698
143.587
146.477
149.272
152.093
154.792
157.551
160.163
162.868
165.425
168.082
170.879
173.051
176.392
179.117
178.568
183.176
192.315
183.523
187.374
214.535
214.802
194.68
201.671
227.719
249.59
259.77
265.436
264.636
262.626
-27.4456
-27.7145
-28.0679
-28.4852
-28.9211
-29.3507
-29.7703
-30.1835
-30.5915
-30.9912
-31.3771
-31.7425
-32.0809
-32.3858
-32.65
-32.8661
-33.026
-33.1215
-33.1442
-33.0855
-32.9372
-32.6913
-32.3406
-31.8787
-31.3004
-30.6014
-29.7791
-28.832
-27.7599
-26.5641
-25.2468
-23.8116
-22.2625
-20.6046
-18.8433
-16.9844
-15.0338
-12.9976
-10.8816
-8.69171
-6.43338
-4.11189
-1.73207
0.701426
3.18456
5.71331
8.28446
10.8946
13.5412
16.2215
18.9337
21.6751
24.4451
27.2409
30.0626
32.9075
35.7765
38.6665
41.5795
44.5116
47.4659
50.4376
53.4314
56.4406
59.4719
62.5166
65.5834
68.6611
71.7611
74.8689
77.9995
81.1335
84.2909
87.4462
90.6253
93.7957
96.9898
100.168
103.368
106.544
109.74
112.903
116.082
119.219
122.368
125.467
128.569
131.615
134.657
137.635
140.608
143.505
146.403
149.207
152.035
154.744
157.509
160.132
162.84
165.413
168.061
170.875
173.064
176.351
179.138
178.658
183.121
192.253
183.915
187.439
214.072
214.732
195.476
202.28
227.48
248.878
259.075
264.863
264.505
262.725
-25.0444
-25.2604
-25.5539
-25.9061
-26.2746
-26.6364
-26.9881
-27.3334
-27.6741
-28.0078
-28.33
-28.6351
-28.918
-29.1732
-29.3949
-29.5768
-29.7124
-29.7945
-29.8158
-29.7688
-29.6459
-29.4396
-29.143
-28.7493
-28.2527
-27.6481
-26.9315
-26.0999
-25.1515
-24.0857
-22.9029
-21.6048
-20.1938
-18.6733
-17.0475
-15.3208
-13.4983
-11.5851
-9.58676
-7.50855
-5.35573
-3.13351
-0.846685
1.49995
3.90224
6.35589
8.8575
11.4033
13.9906
16.616
19.2779
21.9729
24.7003
27.457
30.2429
33.0548
35.8937
38.7559
41.6436
44.5524
47.4856
50.4377
53.4138
56.4067
59.4232
62.4542
65.5089
68.5752
71.6651
74.7636
77.886
81.0124
84.1634
87.3128
90.4872
93.6534
96.8445
100.019
103.219
106.393
109.59
112.753
115.935
119.075
122.227
125.33
128.438
131.49
134.54
137.526
140.507
143.414
146.321
149.137
151.974
154.696
157.468
160.107
162.818
165.415
168.052
170.884
173.104
176.315
179.179
178.837
183.093
192.149
184.496
187.677
213.441
214.603
196.54
203.167
227.309
248.106
258.308
264.212
264.338
262.825
-22.6219
-22.7927
-23.0346
-23.3302
-23.6403
-23.9432
-24.2361
-24.5226
-24.8046
-25.0806
-25.3467
-25.5984
-25.8313
-26.0409
-26.2225
-26.371
-26.4807
-26.5458
-26.5599
-26.5163
-26.4085
-26.2296
-25.9728
-25.6319
-25.2008
-24.6738
-24.0464
-23.3144
-22.4748
-21.5255
-20.4655
-19.2948
-18.0141
-16.6254
-15.1312
-13.5348
-11.8401
-10.0513
-8.17291
-6.20986
-4.16684
-2.04881
0.139649
2.39374
4.70936
7.08201
9.50822
11.9839
14.5062
17.0715
19.6778
22.3216
25.0018
27.7148
30.4608
33.2358
36.0411
38.8722
41.7316
44.614
47.5235
50.4536
53.4097
56.384
59.384
62.3995
65.4403
68.4937
71.5722
74.6599
77.7728
80.8905
84.034
87.1764
90.3451
93.5061
96.6932
99.8648
103.062
106.234
109.431
112.594
115.777
118.92
122.075
125.183
128.296
131.355
134.412
137.407
140.397
143.315
146.232
149.062
151.91
154.649
157.429
160.09
162.804
165.433
168.059
170.911
173.18
176.295
179.242
179.121
183.112
191.99
185.295
188.122
212.643
214.437
197.883
204.331
227.215
247.292
257.484
263.495
264.133
262.921
-20.1804
-20.3128
-20.5101
-20.7565
-21.0155
-21.2673
-21.509
-21.7444
-21.9754
-22.2009
-22.4177
-22.622
-22.8102
-22.9785
-23.123
-23.2396
-23.3235
-23.3696
-23.3727
-23.3269
-23.2264
-23.0652
-22.8372
-22.5362
-22.1565
-21.6924
-21.1389
-20.4913
-19.7459
-18.8993
-17.9495
-16.8949
-15.7351
-14.4704
-13.102
-11.632
-10.0627
-8.39751
-6.63989
-4.79396
-2.86372
-0.853742
1.23186
3.3884
5.612
7.89805
10.2432
12.643
15.0948
17.5944
20.1399
22.7271
25.3552
28.02
30.7217
33.4556
36.2233
39.0195
41.8472
44.7002
47.583
50.4882
53.422
56.3753
59.3566
62.3544
65.3797
68.4184
71.4839
74.5595
77.6616
80.7694
83.904
87.0385
90.2004
93.3554
96.5376
99.7049
102.899
106.069
109.264
112.428
115.611
118.755
121.914
125.026
128.144
131.21
134.274
137.279
140.277
143.209
146.137
148.984
151.842
154.604
157.393
160.081
162.801
165.466
168.088
170.954
173.295
176.3
179.331
179.509
183.2
191.807
186.323
188.791
211.714
214.237
199.464
205.734
227.202
246.457
256.619
262.729
263.889
263.007
-17.7222
-17.8218
-17.9806
-18.184
-18.3985
-18.6056
-18.8029
-18.9938
-19.1803
-19.3616
-19.5352
-19.6976
-19.8459
-19.977
-20.0877
-20.1743
-20.2331
-20.2597
-20.2496
-20.1977
-20.0991
-19.9484
-19.7402
-19.4688
-19.1289
-18.715
-18.2219
-17.6449
-16.9795
-16.2221
-15.3695
-14.4192
-13.3696
-12.2198
-10.9697
-9.62001
-8.17199