/*--------------------------------*- C++ -*----------------------------------*\
| =========                 |                                                 |
| \\      /  F ield         | OpenFOAM: The Open Source CFD Toolbox           |
|  \\    /   O peration     | Version:  2412                                  |
|   \\  /    A nd           | Website:  www.openfoam.com                      |
|    \\/     M anipulation  |                                                 |
\*---------------------------------------------------------------------------*/
FoamFile
{
    version     2.0;
    format      ascii;
    arch        "LSB;label=32;scalar=64";
    class       volVectorField;
    location    "0.455";
    object      U;
}
// * * * * * * * * * * * * * * * * * * * * * * * * * * * * * * * * * * * * * //

dimensions      [0 1 -1 0 0 0 0];

internalField   nonuniform List<vector> 
12600
(
(18.7146 1.25275e-21 2.08648)
(11.6125 1.61124e-20 0.448531)
(7.35081 1.89533e-20 -0.478582)
(5.09201 0 -0.709607)
(3.98035 1.71514e-20 -0.682763)
(3.34021 1.59815e-20 -0.608149)
(2.89927 0 -0.540524)
(2.56818 0 -0.485157)
(2.30861 -4.81298e-20 -0.439752)
(2.09848 0 -0.402042)
(1.92409 2.02106e-20 -0.37019)
(1.77652 1.85167e-20 -0.342872)
(1.64965 -1.69735e-20 -0.319141)
(1.53917 0 -0.298302)
(1.44189 -1.42444e-20 -0.279833)
(1.35542 0 -0.263331)
(1.27793 4.79266e-20 -0.248482)
(1.20801 0 -0.235036)
(1.14451 -2.00841e-20 -0.222791)
(1.08653 -1.83814e-20 -0.211585)
(1.03334 1.67928e-20 -0.201284)
(0.984309 5.63756e-24 -0.191774)
(0.938945 0 -0.182963)
(0.896819 -2.54122e-20 -0.174773)
(0.85757 0 -0.167135)
(0.820893 0 -0.159992)
(0.786524 -1.89208e-20 -0.153294)
(0.754235 0 -0.146999)
(0.72383 3.86961e-24 -0.141069)
(0.695134 1.37554e-20 -0.13547)
(0.667997 1.22802e-20 -0.130175)
(0.642285 1.09137e-20 -0.125156)
(0.61788 -9.64685e-21 -0.120392)
(0.594676 -1.69459e-20 -0.115862)
(0.572578 -1.47704e-20 -0.111548)
(0.551501 1.2747e-20 -0.107433)
(0.53137 0 -0.103503)
(0.512116 -9.17954e-21 -0.0997444)
(0.493676 0 -0.096145)
(0.475993 6.13448e-21 -0.0926938)
(0.459014 0 -0.0893809)
(0.442695 1.72088e-23 -0.086197)
(0.42699 0 -0.0831335)
(0.411861 1.56376e-23 -0.0801828)
(0.397271 7.70072e-22 -0.0773376)
(0.383185 9.76967e-22 -0.0745915)
(0.369572 -2.60006e-21 -0.0719382)
(0.356404 0 -0.0693722)
(0.343652 0 -0.0668882)
(0.331293 -6.62744e-21 -0.0644814)
(0.319303 -1.54715e-20 -0.0621469)
(0.307661 -1.74734e-20 -0.0598805)
(0.296345 1.89091e-23 -0.057678)
(0.285338 -2.086e-20 -0.0555361)
(0.274619 0 -0.0534511)
(0.264174 2.35716e-20 -0.0514198)
(0.253985 2.4687e-20 -0.0494393)
(0.244038 2.56518e-20 -0.0475062)
(0.234322 0 -0.0456183)
(0.22482 0 -0.0437726)
(0.215524 0 -0.0419673)
(0.206418 -5.66935e-20 -0.0401993)
(0.197499 0 -0.038468)
(0.188746 0 -0.0367696)
(0.180165 1.17109e-19 -0.035105)
(0.17173 0 -0.0334689)
(0.163456 0 -0.0318645)
(0.155308 0 -0.0302846)
(0.147317 -1.17781e-19 -0.0287355)
(0.139432 1.17319e-19 -0.0272072)
(0.131702 1.16596e-19 -0.0257096)
(0.124063 2.31509e-23 -0.0242295)
(0.116582 -1.14612e-19 -0.0227803)
(0.109178 0 -0.0213462)
(0.101936 1.11954e-19 -0.0199435)
(0.0947618 0 -0.0185546)
(0.0877548 0 -0.0171979)
(0.0808188 0 -0.0158553)
(0.0740504 2.88203e-23 -0.0145451)
(0.0673581 2.06112e-19 -0.0132498)
(0.0608299 2.0199e-19 -0.0119863)
(0.0543799 -1.97665e-19 -0.0107382)
(0.0481045 -1.93271e-19 -0.00952368)
(0.0419213 0 -0.00832736)
(0.0359668 0 -0.00717467)
(0.0301318 3.58857e-19 -0.00604574)
(0.0245247 -6.98738e-19 -0.00496009)
(0.0190577 6.79396e-19 -0.00390266)
(0.0137005 3.30095e-19 -0.00286549)
(0.00866956 0 -0.00189261)
(0.00342195 -6.21333e-19 -0.00087727)
(-0.000963835 3.01002e-19 -2.84859e-05)
(-0.00612122 -2.91321e-19 0.000966737)
(-0.00970287 5.63699e-19 0.00166079)
(-0.0151066 0 0.00270331)
(-0.017589 0 0.00318284)
(-0.0235182 0 0.00432825)
(-0.0256759 0 0.00474215)
(-0.0334033 0 0.00622861)
(-0.0330266 0 0.00614611)
(-0.040325 -4.37459e-19 0.00756267)
(-0.0375915 -8.42937e-19 0.00704269)
(-0.0522908 -8.06543e-19 0.00986639)
(-0.0572311 0 0.0108136)
(-0.0986147 0 0.018695)
(-0.11718 0 0.0220936)
(-0.141938 -7.10696e-19 0.0267145)
(-0.094829 -1.42553e-18 0.0173457)
(-0.0646196 6.9932e-19 0.0116069)
(0.0130619 0 -0.0031482)
(0.0152462 -1.30709e-18 -0.0032853)
(0.0609998 0 -0.0119913)
(0.0315516 -1.18572e-18 -0.00622136)
(0.0662954 1.13341e-18 -0.0130381)
(0.0487023 -1.08348e-18 -0.00967036)
(0.0940876 -1.03024e-18 -0.0184579)
(0.0897792 9.92088e-19 -0.0177093)
(0.156019 -3.70988e-23 -0.0303234)
(0.14371 8.95729e-19 -0.0281033)
(0.241514 0 -0.0467758)
(29.1172 -1.26466e-21 4.0144)
(25.0858 0 1.85132)
(20.2339 -1.91829e-20 -0.217486)
(16.0754 0 -1.21438)
(13.1214 -1.73793e-20 -1.50946)
(11.0821 -3.05402e-20 -1.52046)
(9.61201 -1.41448e-20 -1.44295)
(8.50142 0 -1.34553)
(7.62957 3.56276e-22 -1.25031)
(6.92377 -2.20312e-20 -1.16336)
(6.33847 2.02401e-20 -1.08538)
(5.84368 1.85925e-20 -1.01564)
(5.41884 -1.70772e-20 -0.953151)
(5.0493 1.56825e-20 -0.896926)
(4.72434 2.8852e-20 -0.846113)
(4.43588 0 -0.799979)
(4.17775 -6.53898e-23 -0.757907)
(3.94512 2.22111e-20 -0.719377)
(3.73415 2.03763e-20 -0.68395)
(3.54178 0 -0.651257)
(3.3655 0 -0.620981)
(3.20323 1.55363e-20 -0.592856)
(3.05328 0 -0.566651)
(2.91421 1.28821e-20 -0.542167)
(2.78478 -2.33927e-20 -0.519235)
(2.66398 0 -0.497703)
(2.55092 1.91763e-20 -0.477442)
(2.44481 0 -0.458337)
(2.34501 -1.55468e-20 -0.440286)
(2.25092 -2.78666e-20 -0.423201)
(2.16204 -2.48735e-20 -0.407002)
(2.07791 -1.10466e-20 -0.391616)
(1.99814 9.76166e-21 -0.376982)
(1.92237 3.43024e-20 -0.363042)
(1.85029 2.9892e-20 -0.349744)
(1.78161 0 -0.337042)
(1.71607 0 -0.324893)
(1.65345 -1.69039e-23 -0.31326)
(1.59353 0 -0.302107)
(1.53613 -6.19301e-21 -0.291402)
(1.48106 0 -0.281116)
(1.42819 -7.15634e-21 -0.271222)
(1.37735 0 -0.261695)
(1.32842 -2.73149e-21 -0.252512)
(1.28127 0 -0.243652)
(1.23579 -9.83744e-22 -0.235096)
(1.19188 0 -0.226824)
(1.14944 0 -0.21882)
(1.10838 5.40486e-21 -0.211069)
(1.06862 0 -0.203556)
(1.03008 0 -0.196266)
(0.99269 0 -0.189187)
(0.956376 1.9314e-20 -0.182306)
(0.92108 4.17962e-20 -0.175613)
(0.886739 0 -0.169096)
(0.8533 0 -0.162747)
(0.82071 -2.46624e-20 -0.156554)
(0.788919 -2.56505e-20 -0.15051)
(0.757886 0 -0.144606)
(0.727562 0 -0.138834)
(0.697916 0 -0.133188)
(0.668897 0 -0.127659)
(0.64049 -5.72246e-20 -0.122244)
(0.612635 5.78029e-20 -0.116932)
(0.585342 -1.16441e-19 -0.111726)
(0.55853 0 -0.106608)
(0.532245 0 -0.101591)
(0.506376 0 -0.0966499)
(0.481013 4.62488e-23 -0.0918058)
(0.456004 -1.16197e-19 -0.0870259)
(0.431496 -1.15376e-19 -0.0823433)
(0.407287 2.28763e-19 -0.0777139)
(0.383586 3.54294e-23 -0.0731836)
(0.360139 -1.1184e-19 -0.0686978)
(0.33721 -1.10361e-19 -0.0643137)
(0.314508 0 -0.0599693)
(0.292339 0 -0.0557296)
(0.270399 0 -0.0515301)
(0.248996 2.06243e-19 -0.0474358)
(0.227835 0 -0.0433848)
(0.207202 0 -0.0394364)
(0.186825 1.93458e-19 -0.0355353)
(0.167004 1.88956e-19 -0.0317421)
(0.147499 0 -0.028008)
(0.128693 0 -0.0244113)
(0.110291 0 -0.0208871)
(0.0925675 6.80097e-19 -0.0174993)
(0.075324 -4.79205e-23 -0.0141928)
(0.0584216 3.20553e-19 -0.0109637)
(0.042553 -3.10758e-19 -0.00791786)
(0.0260919 6.02124e-19 -0.00477425)
(0.0122457 2.9135e-19 -0.00211951)
(-0.00386655 5.63424e-19 0.000959671)
(-0.015219 0 0.00313656)
(-0.0319909 0 0.00634646)
(-0.0399196 0 0.00786008)
(-0.0583495 0 0.0114148)
(-0.0650523 4.70866e-19 0.0127081)
(-0.0884404 0 0.0171912)
(-0.0871895 0 0.0168953)
(-0.109969 -4.19427e-19 0.0212839)
(-0.102753 4.03741e-19 0.0199562)
(-0.148435 1.54369e-18 0.0289476)
(-0.163712 -7.41574e-19 0.0322267)
(-0.284059 0 0.0557645)
(-0.328746 0 0.0638946)
(-0.392913 0 0.0753215)
(-0.24432 6.7888e-19 0.0452424)
(-0.159697 -6.65545e-19 0.0285986)
(0.0691889 0 -0.0149868)
(0.0659472 2.48361e-18 -0.0135128)
(0.205175 1.18923e-18 -0.0398205)
(0.11305 2.24942e-18 -0.0216941)
(0.227593 0 -0.0440318)
(0.170532 0 -0.0332961)
(0.317 -9.74931e-19 -0.0615242)
(0.299974 0 -0.0588515)
(0.502461 -8.85294e-19 -0.0973791)
(0.467149 -8.45948e-19 -0.0912551)
(0.757115 0 -0.147222)
(31.861 0 3.88091)
(31.0526 0 2.80683)
(28.5306 -1.30141e-20 1.01497)
(25.196 0 -0.389009)
(21.952 0 -1.23126)
(19.1856 1.51781e-20 -1.6552)
(16.9325 1.33952e-20 -1.82319)
(15.1114 0 -1.85474)
(13.6269 4.2082e-22 -1.8211)
(12.399 2.08715e-20 -1.7587)
(11.3674 -3.8141e-20 -1.68503)
(10.4881 -1.76163e-20 -1.60842)
(9.72883 1.1489e-22 -1.53286)
(9.06584 -1.48604e-20 -1.4602)
(8.48128 -1.36432e-20 -1.39124)
(7.96144 1.24702e-20 -1.32622)
(7.49569 -2.29659e-20 -1.26513)
(7.07562 -2.10481e-20 -1.20782)
(6.69451 0 -1.15407)
(6.34691 0 -1.10364)
(6.02839 1.60891e-20 -1.05627)
(5.73524 1.46899e-20 -1.01174)
(5.4644 0 -0.96981)
(5.21329 0 -0.930281)
(4.97971 2.2166e-20 -0.892961)
(4.7618 0 -0.857676)
(4.55793 -3.6334e-20 -0.824267)
(4.36673 1.63841e-20 -0.79259)
(4.18699 0 -0.762515)
(4.01764 1.32033e-20 -0.733923)
(3.85776 1.17855e-20 -0.706705)
(3.70653 0 -0.680764)
(3.56323 -9.25977e-21 -0.65601)
(3.4272 -1.62539e-20 -0.632361)
(3.29787 1.15362e-23 -0.609743)
(3.17473 0 -0.588086)
(3.0573 0 -0.567329)
(2.94517 8.79822e-21 -0.547412)
(2.83796 0 -0.528284)
(2.73531 0 -0.509895)
(2.63692 0 -0.492199)
(2.5425 0 -0.475154)
(2.45178 0 -0.458722)
(2.36452 0 -0.442866)
(2.2805 0 -0.427552)
(2.19951 8.89117e-22 -0.412749)
(2.12136 -2.42364e-21 -0.398428)
(2.04589 0 -0.384561)
(1.97292 -5.11351e-21 -0.371122)
(1.9023 0 -0.358088)
(1.83389 0 -0.345434)
(1.76756 1.65093e-20 -0.333142)
(1.70319 0 -0.321189)
(1.64067 -1.97462e-20 -0.309558)
(1.57988 2.10652e-20 -0.29823)
(1.52072 0 -0.287189)
(1.4631 2.33114e-20 -0.276419)
(1.40692 0 -0.265906)
(1.35212 0 -0.255635)
(1.29861 0 -0.245592)
(1.24632 5.24062e-20 -0.235767)
(1.19517 5.33084e-20 -0.226145)
(1.14512 2.78253e-23 -0.216722)
(1.09607 -1.09138e-19 -0.207477)
(1.04803 2.43267e-23 -0.198415)
(1.00087 0 -0.189509)
(0.954649 0 -0.180777)
(0.909188 -1.1043e-19 -0.172178)
(0.864627 3.73342e-23 -0.163747)
(0.820713 0 -0.155429)
(0.777687 0 -0.14728)
(0.735208 -1.07846e-19 -0.139223)
(0.693625 2.84234e-23 -0.13134)
(0.652507 2.64432e-23 -0.123533)
(0.612303 0 -0.115906)
(0.572512 0 -0.108345)
(0.533662 -2.01451e-19 -0.10097)
(0.495218 1.97893e-19 -0.0936613)
(0.457727 0 -0.0865397)
(0.420661 0 -0.0794897)
(0.384533 0 -0.0726225)
(0.348865 0 -0.0658369)
(0.314179 0 -0.0592434)
(0.280072 0 -0.052757)
(0.247161 0 -0.0465088)
(0.21499 0 -0.0403864)
(0.183953 -6.39377e-19 -0.0344979)
(0.153808 -3.10458e-19 -0.0287468)
(0.124251 -3.01279e-19 -0.023146)
(0.0965141 2.92012e-19 -0.0178432)
(0.067855 -5.65621e-19 -0.0124223)
(0.0436338 -2.73663e-19 -0.00779955)
(0.0156736 -2.64541e-19 -0.00250485)
(-0.00424543 0 0.00130503)
(-0.0331855 0 0.00679147)
(-0.0471906 0 0.00946341)
(-0.0789845 0 0.0155793)
(-0.0905243 -4.41751e-19 0.0178281)
(-0.130039 0 0.0253071)
(-0.127837 0 0.0247518)
(-0.167295 3.93266e-19 0.0323146)
(-0.156409 0 0.0305423)
(-0.234817 -7.23414e-19 0.0462902)
(-0.260202 6.94939e-19 0.0524418)
(-0.455789 0 0.0909)
(-0.515075 0 0.100418)
(-0.609644 0 0.114895)
(-0.351689 6.3544e-19 0.0611096)
(-0.219236 0 0.0346513)
(0.158759 -6.09686e-19 -0.036103)
(0.140248 -8.09205e-23 -0.0299041)
(0.377033 -1.113e-18 -0.0738196)
(0.217412 -2.10481e-18 -0.0421346)
(0.423684 0 -0.082832)
(0.3213 9.59841e-19 -0.0637974)
(0.580968 9.1193e-19 -0.114191)
(0.545845 8.77393e-19 -0.108922)
(0.890266 0 -0.174064)
(0.832748 7.90991e-19 -0.16494)
(1.3121 0 -0.257363)
(32.385 0 2.93644)
(32.9536 0 2.75303)
(32.4044 1.23026e-20 1.71115)
(30.7669 0 0.512095)
(28.5199 -1.23576e-20 -0.491413)
(26.1097 2.5141e-20 -1.21327)
(23.7956 0 -1.67571)
(21.6937 -2.19705e-20 -1.93958)
(19.8375 2.10736e-20 -2.06869)
(18.2176 1.90715e-20 -2.113)
(16.8067 1.79334e-20 -2.10628)
(15.5736 -1.63118e-20 -2.06977)
(14.4899 1.51944e-20 -2.01641)
(13.5315 -2.77222e-20 -1.954)
(12.6783 0 -1.88729)
(11.9141 -2.35248e-20 -1.81913)
(11.2256 0 -1.75127)
(10.602 0 -1.68477)
(10.0343 0 -1.62022)
(9.51522 1.66016e-20 -1.55799)
(9.03858 -3.44776e-23 -1.49822)
(8.59924 -2.62714e-23 -1.44098)
(8.19284 1.26479e-20 -1.38625)
(7.81569 0 -1.33396)
(7.46464 0 -1.28403)
(7.13697 0 -1.23636)
(6.83034 3.43479e-20 -1.19083)
(6.5427 -6.44803e-24 -1.14734)
(6.27228 0 -1.10578)
(6.01751 0 -1.06603)
(5.77701 0 -1.028)
(5.54956 0 -0.991587)
(5.33408 1.75147e-20 -0.956693)
(5.1296 0 -0.923232)
(4.93525 -1.34029e-20 -0.891123)
(4.75027 0 -0.860286)
(4.57394 0 -0.830649)
(4.40564 -8.33983e-21 -0.802143)
(4.24479 0 -0.774704)
(4.09087 0 -0.748271)
(3.9434 4.35901e-21 -0.722789)
(3.80194 -6.47188e-21 -0.698205)
(3.66611 0 -0.674468)
(3.53553 -2.50704e-21 -0.651532)
(3.40986 0 -0.629354)
(3.2888 -1.66087e-21 -0.607892)
(3.17205 1.83516e-23 -0.587107)
(3.05935 0 -0.566963)
(2.95046 0 -0.547426)
(2.84514 5.89243e-21 -0.528462)
(2.74317 1.37709e-20 -0.510042)
(2.64437 -3.11495e-20 -0.492136)
(2.54854 0 -0.474715)
(2.45551 -1.85928e-20 -0.457757)
(2.36511 -1.98847e-20 -0.441233)
(2.27719 -2.09776e-20 -0.425124)
(2.1916 -2.19594e-20 -0.409404)
(2.10822 0 -0.394055)
(2.02692 0 -0.379056)
(1.94757 -4.83617e-20 -0.364388)
(1.87008 -9.88348e-20 -0.350036)
(1.79431 -5.02789e-20 -0.335979)
(1.72022 2.98637e-23 -0.32221)
(1.64765 5.1442e-20 -0.308701)
(1.5766 5.17869e-20 -0.295459)
(1.50689 0 -0.282444)
(1.4386 0 -0.269682)
(1.37146 1.04067e-19 -0.257115)
(1.30567 2.07409e-19 -0.244793)
(1.24087 0 -0.232636)
(1.17739 1.02402e-19 -0.220725)
(1.11475 1.01508e-19 -0.20895)
(1.05344 1.00445e-19 -0.197429)
(0.992838 1.98444e-19 -0.186019)
(0.933592 0 -0.174871)
(0.874976 0 -0.16382)
(0.817755 1.8957e-19 -0.153043)
(0.761143 -3.72336e-19 -0.142361)
(0.705947 -1.82601e-19 -0.131954)
(0.651379 0 -0.121649)
(0.598213 0 -0.111616)
(0.545736 0 -0.101702)
(0.494719 0 -0.0920735)
(0.444584 0 -0.0826065)
(0.396174 0 -0.0734846)
(0.348891 -3.08824e-19 -0.064548)
(0.303209 4.55068e-23 -0.0559461)
(0.258909 2.915e-19 -0.0475464)
(0.215463 0 -0.0393784)
(0.174714 2.74087e-19 -0.0316296)
(0.132757 2.65452e-19 -0.0237638)
(0.0971423 0 -0.0170028)
(0.0563378 -2.48173e-19 -0.00934831)
(0.0269676 -4.79479e-19 -0.00374829)
(-0.0150179 0 0.00413331)
(-0.0358102 0 0.00809955)
(-0.0818647 0 0.016923)
(-0.098529 -4.14072e-19 0.0202054)
(-0.154646 0 0.0306975)
(-0.151477 0 0.0298642)
(-0.208872 3.68442e-19 0.0408208)
(-0.195004 -3.54523e-19 0.0389072)
(-0.307485 0 0.0618221)
(-0.341784 0 0.0710688)
(-0.607449 0 0.123597)
(-0.668427 0 0.131683)
(-0.784663 0 0.146274)
(-0.410338 -1.61303e-22 0.0666726)
(-0.238367 0 0.0314447)
(0.285969 5.70525e-19 -0.0653702)
(0.242025 -1.08744e-18 -0.052032)
(0.580983 0 -0.113948)
(0.348815 5.62185e-23 -0.0676707)
(0.659274 0 -0.1292)
(0.504592 -6.59277e-23 -0.100809)
(0.889747 0 -0.17582)
(0.830055 -8.20332e-19 -0.167113)
(1.32128 0 -0.259737)
(1.24219 7.39291e-19 -0.248119)
(1.90496 0 -0.376278)
(32.4897 0 2.08292)
(33.2488 0 2.21049)
(33.5976 0 1.73734)
(33.2366 0 0.945142)
(32.2183 1.16647e-20 0.104952)
(30.7494 -8.99659e-22 -0.642875)
(29.0351 0 -1.24297)
(27.2338 2.07371e-20 -1.68617)
(25.455 0 -1.98956)
(23.7646 -3.55018e-20 -2.18132)
(22.195 0 -2.28997)
(20.7564 1.53994e-20 -2.33945)
(19.4462 0 -2.34803)
(18.2559 2.61741e-20 -2.32894)
(17.1742 -1.19324e-20 -2.29146)
(16.1897 2.20656e-20 -2.24205)
(15.2916 -2.02171e-20 -2.18513)
(14.4699 -1.85728e-20 -2.12376)
(13.7159 0 -2.06005)
(13.0219 -1.56765e-20 -1.99546)
(12.3812 -1.43375e-20 -1.93098)
(11.7882 -2.61546e-20 -1.86728)
(11.2376 -1.19431e-20 -1.80483)
(10.7252 0 -1.74393)
(10.247 0 -1.68475)
(9.79982 0 -1.62742)
(9.38065 -1.62109e-20 -1.57197)
(8.98691 -1.46242e-20 -1.51843)
(8.61634 0 -1.46677)
(8.2669 0 -1.41696)
(7.93681 1.05234e-20 -1.36895)
(7.62446 0 -1.32269)
(7.32843 1.07362e-24 -1.2781)
(7.04743 -1.45297e-20 -1.23513)
(6.78031 1.26671e-20 -1.19371)
(6.52603 0 -1.15377)
(6.28365 0 -1.11524)
(6.05231 7.8713e-21 -1.07806)
(5.83124 0 -1.04216)
(5.61972 0 -1.00749)
(5.41711 -4.11344e-21 -0.973988)
(5.22282 6.10689e-21 -0.941591)
(5.0363 0 -0.91025)
(4.85705 2.36534e-21 -0.879913)
(4.68461 0 -0.850529)
(4.51855 7.74353e-22 -0.822053)
(4.35848 2.14243e-21 -0.794439)
(4.20402 0 -0.767644)
(4.05485 4.50918e-21 -0.741628)
(3.91063 -5.55689e-21 -0.716352)
(3.77108 -2.59423e-20 -0.691777)
(3.63592 1.46719e-20 -0.66787)
(3.50489 -1.61567e-20 -0.644595)
(3.37776 2.48072e-23 -0.621923)
(3.25428 0 -0.59982)
(3.13425 1.97722e-20 -0.57826)
(3.01748 2.06955e-20 -0.557213)
(2.90376 -2.14815e-20 -0.536653)
(2.79294 2.2174e-20 -0.516556)
(2.68484 4.55637e-20 -0.496897)
(2.57932 4.65372e-20 -0.477657)
(2.47621 -4.72983e-20 -0.458808)
(2.37542 4.79482e-20 -0.440341)
(2.27675 0 -0.422221)
(2.18019 0 -0.404455)
(2.0855 4.89119e-20 -0.386993)
(1.99276 0 -0.369867)
(1.90164 0 -0.353003)
(1.81237 -9.75779e-20 -0.336465)
(1.72449 0 -0.320149)
(1.63841 -9.63443e-20 -0.304162)
(1.55352 -1.90948e-19 -0.288357)
(1.47043 0 -0.272891)
(1.38835 -9.32993e-20 -0.257573)
(1.30811 0 -0.24261)
(1.22874 0 -0.227773)
(1.15128 -1.78113e-19 -0.213308)
(1.07465 1.74956e-19 -0.198964)
(0.999961 3.91562e-23 -0.184996)
(0.926121 0 -0.171159)
(0.854206 0 -0.157693)
(0.783236 0 -0.144386)
(0.714261 -1.56869e-19 -0.131471)
(0.646511 1.52937e-19 -0.118776)
(0.581051 0 -0.106542)
(0.517156 5.79744e-19 -0.0945563)
(0.455349 2.8179e-19 -0.0830141)
(0.395499 -5.47051e-19 -0.0717422)
(0.336788 -2.65333e-19 -0.0608013)
(0.281757 -5.14212e-19 -0.0503987)
(0.22527 0 -0.0399167)
(0.177126 0 -0.0308322)
(0.122362 2.32703e-19 -0.0206656)
(0.0825582 4.49519e-19 -0.0131091)
(0.0265561 -4.33517e-19 -0.0027184)
(-0.00181757 0 0.00270075)
(-0.0630641 0 0.0143683)
(-0.0851447 3.8796e-19 0.0187565)
(-0.158377 3.72905e-19 0.0322369)
(-0.154289 0 0.0311191)
(-0.230901 -3.45054e-19 0.0456856)
(-0.214486 3.31972e-19 0.0439772)
(-0.361845 0 0.0744626)
(-0.402704 0 0.0868753)
(-0.731993 0 0.152098)
(-0.78087 0 0.155054)
(-0.910942 0 0.166205)
(-0.4144 -5.56358e-19 0.0588497)
(-0.21274 0 0.0166017)
(0.454827 0 -0.104584)
(0.375303 0 -0.0813285)
(0.821592 9.73587e-19 -0.16161)
(0.511539 9.20451e-19 -0.0997068)
(0.938762 0 -0.184831)
(0.723702 -8.39118e-19 -0.145762)
(1.24618 0 -0.247994)
(1.15461 -7.66651e-19 -0.234683)
(1.79599 0 -0.355293)
(1.69602 -6.90895e-19 -0.341777)
(2.53275 0 -0.503827)
(32.5637 -5.02753e-21 1.46801)
(33.1479 -6.23029e-21 1.60939)
(33.6756 7.38979e-21 1.42002)
(33.9029 8.32292e-21 0.960614)
(33.7131 0 0.370144)
(33.1179 -9.96894e-21 -0.244461)
(32.1905 0 -0.817443)
(31.0217 1.75373e-20 -1.31182)
(29.6998 1.67757e-20 -1.71217)
(28.3012 3.23688e-20 -2.01893)
(26.8849 -1.49037e-20 -2.24174)
(25.4931 1.39162e-20 -2.39408)
(24.153 0 -2.48982)
(22.88 0 -2.54156)
(21.6815 1.12496e-20 -2.55991)
(20.5594 -1.14952e-22 -2.55338)
(19.5119 1.76844e-22 -2.52859)
(18.5357 1.36597e-22 -2.49063)
(17.6262 0 -2.44332)
(16.7786 0 -2.38953)
(15.9881 0 -2.33142)
(15.2499 2.45765e-20 -2.2706)
(14.5596 1.11957e-20 -2.20825)
(13.9133 0 -2.14529)
(13.307 0 -2.08235)
(12.7376 1.68382e-20 -2.01994)
(12.2018 0 -1.95839)
(11.697 0 -1.89797)
(11.2206 0 -1.83884)
(10.7703 0 -1.78114)
(10.3442 -6.66305e-24 -1.72493)
(9.94027 0 -1.67027)
(9.55692 -1.94291e-24 -1.61715)
(9.19262 1.36964e-20 -1.5656)
(8.84597 2.04045e-24 -1.51558)
(8.51571 0 -1.46707)
(8.2007 0 -1.42005)
(7.89988 0 -1.37446)
(7.6123 0 -1.33028)
(7.33706 0 -1.28744)
(7.07335 0 -1.2459)
(6.82044 0 -1.20562)
(6.57763 -3.9518e-21 -1.16655)
(6.34428 -2.26376e-21 -1.12864)
(6.11981 0 -1.09184)
(5.90368 6.95953e-22 -1.0561)
(5.69536 0 -1.02138)
(5.49441 0 -0.98764)
(5.30036 -8.47939e-21 -0.95483)
(5.11282 0 -0.92291)
(4.9314 1.22021e-20 -0.891839)
(4.75575 0 -0.861579)
(4.58553 3.04014e-20 -0.832091)
(4.42042 2.39971e-23 -0.80334)
(4.26014 0 -0.775289)
(4.10439 0 -0.747908)
(3.95293 0 -0.721161)
(3.8055 4.04175e-20 -0.695019)
(3.66189 -4.17182e-20 -0.669453)
(3.52186 -4.28092e-20 -0.644432)
(3.38524 -4.37248e-20 -0.619934)
(3.25179 8.89689e-20 -0.595927)
(3.12141 4.50505e-20 -0.572398)
(2.99382 0 -0.549305)
(2.86902 0 -0.526658)
(2.74668 -2.36887e-23 -0.504395)
(2.6269 0 -0.482554)
(2.50926 0 -0.461045)
(2.39405 -9.16571e-20 -0.439948)
(2.28067 0 -0.419132)
(2.16965 0 -0.398732)
(2.0602 1.79383e-19 -0.378564)
(1.95309 -8.86888e-20 -0.358825)
(1.84731 0 -0.339275)
(1.74392 0 -0.320175)
(1.64169 0 -0.301235)
(1.54192 1.67275e-19 -0.28277)
(1.44324 0 -0.264456)
(1.34707 3.22115e-19 -0.246625)
(1.252 -1.57727e-19 -0.228955)
(1.15945 0 -0.211768)
(1.06812 0 -0.19478)
(0.979385 1.47204e-19 -0.178301)
(0.892254 -2.7436e-23 -0.162107)
(0.808025 1.39734e-19 -0.146499)
(0.725846 -2.71875e-19 -0.131204)
(0.646274 2.64194e-19 -0.116471)
(0.56932 2.56473e-19 -0.102082)
(0.493814 2.48774e-19 -0.088139)
(0.423087 3.50466e-23 -0.0748569)
(0.350692 0 -0.0615621)
(0.288754 -2.25626e-19 -0.04995)
(0.218782 0 -0.0370991)
(0.167454 0 -0.0274017)
(0.0963592 4.06124e-19 -0.014367)
(0.0595192 0 -0.00732802)
(-0.0178909 0 0.00731233)
(-0.0456881 0 0.0128799)
(-0.13659 -3.49156e-19 0.0293379)
(-0.131684 0 0.0279741)
(-0.228767 -3.22931e-19 0.0463669)
(-0.209913 0 0.0451023)
(-0.392344 0 0.0833527)
(-0.436146 0 0.098663)
(-0.821392 0 0.174861)
(-0.843544 0 0.169079)
(-0.980696 -5.19252e-19 0.17388)
(-0.357442 -5.20062e-19 0.0370391)
(-0.137388 5.09717e-19 -0.0103213)
(0.669965 0 -0.154282)
(0.544785 0 -0.118446)
(1.10396 -1.82037e-18 -0.217534)
(0.710339 0 -0.138924)
(1.26669 8.21236e-19 -0.250267)
(0.98213 0 -0.199098)
(1.65264 7.44688e-19 -0.330875)
(1.52141 7.16423e-19 -0.311757)
(2.31371 0 -0.460508)
(2.19411 -6.45426e-19 -0.445659)
(3.19136 0 -0.639257)
(32.6199 4.73456e-21 1.01529)
(33.0316 1.14925e-20 1.10384)
(33.4784 -6.96079e-21 1.02225)
(33.8445 -7.78543e-22 0.760226)
(34.0193 7.5425e-21 0.371186)
(33.9469 0 -0.0829421)
(33.6194 0 -0.553065)
(33.0568 -1.65139e-20 -1.00347)
(32.2946 -3.06911e-20 -1.41055)
(31.3749 -7.08382e-22 -1.76129)
(30.3412 1.40326e-20 -2.05118)
(29.234 -1.31027e-20 -2.28156)
(28.0881 1.18591e-20 -2.45725)
(26.9317 0 -2.58481)
(25.7862 0 -2.6714)
(24.6671 -9.64763e-21 -2.72399)
(23.5849 3.53297e-20 -2.74898)
(22.5461 3.25387e-20 -2.7519)
(21.5542 0 -2.73746)
(20.6104 0 -2.70953)
(19.7147 0 -2.67128)
(18.8658 -6.76775e-23 -2.62523)
(18.0622 -2.10313e-20 -2.57342)
(17.3015 9.56523e-21 -2.51745)
(16.5816 1.74085e-20 -2.45859)
(15.9001 -3.16594e-20 -2.39784)
(15.2545 1.43115e-20 -2.33599)
(14.6427 1.29229e-20 -2.27365)
(14.0624 1.16325e-20 -2.21129)
(13.5115 0 -2.1493)
(12.9882 -9.33439e-21 -2.08795)
(12.4905 8.29015e-21 -2.02746)
(12.0168 -7.33787e-21 -1.96799)
(11.5656 -1.2887e-20 -1.90966)
(11.1353 -2.24821e-20 -1.85256)
(10.7245 0 -1.79674)
(10.3321 0 -1.74224)
(9.95689 -7.00167e-21 -1.68906)
(9.59772 0 -1.63723)
(9.25363 4.69267e-21 -1.58672)
(8.92368 3.67171e-21 -1.53752)
(8.607 0 -1.48962)
(8.30279 7.45281e-21 -1.44298)
(8.01031 2.13034e-21 -1.39757)
(7.72884 0 -1.35336)
(7.45774 -6.54865e-22 -1.31031)
(7.1964 -1.85369e-21 -1.26839)
(6.94426 0 -1.22755)
(6.70077 7.94932e-21 -1.18776)
(6.46545 -4.8831e-21 -1.14898)
(6.23781 -1.14262e-20 -1.11117)
(6.01744 0 -1.07429)
(5.80391 -2.41878e-23 -1.0383)
(5.59683 3.09291e-20 -1.00317)
(5.39584 0 -0.968854)
(5.20059 0 -0.935324)
(5.01076 -1.82593e-20 -0.902541)
(4.82605 -1.89909e-20 -0.870474)
(4.64617 3.91848e-20 -0.83909)
(4.47084 4.02417e-20 -0.808356)
(4.29983 4.10987e-20 -0.778246)
(4.13285 -4.17947e-20 -0.748723)
(3.96975 -8.46461e-20 -0.719775)
(3.81023 0 -0.691352)
(3.65422 0 -0.663466)
(3.50135 -8.63626e-20 -0.636044)
(3.35172 0 -0.609133)
(3.20483 0 -0.582625)
(3.06099 8.60858e-20 -0.556618)
(2.91951 0 -0.530951)
(2.78097 -8.4933e-20 -0.505791)
(2.64445 -3.18421e-23 -0.480913)
(2.51086 8.32619e-20 -0.456561)
(2.37899 0 -0.432436)
(2.25008 0 -0.408865)
(2.12267 0 -0.385488)
(1.99832 1.56881e-19 -0.362696)
(1.87536 0 -0.340083)
(1.75553 -1.51079e-19 -0.318071)
(1.63709 2.95874e-19 -0.29625)
(1.52181 0 -0.275033)
(1.40806 0 -0.254058)
(1.29758 0 -0.233724)
(1.18911 -2.72146e-23 -0.213738)
(1.08421 -1.30997e-19 -0.194477)
(0.981891 -2.54753e-19 -0.175593)
(0.882734 -2.47613e-19 -0.157404)
(0.786946 2.40269e-19 -0.139633)
(0.692946 0 -0.122446)
(0.604949 2.25769e-19 -0.106041)
(0.515101 0 -0.089727)
(0.437954 2.11336e-19 -0.0753673)
(0.351373 0 -0.059652)
(0.287312 0 -0.0476179)
(0.199921 0 -0.0317989)
(0.153633 -3.66675e-19 -0.0229719)
(0.0590394 -3.52936e-19 -0.00523373)
(0.025206 0 0.00159013)
(-0.0839875 3.26693e-19 0.0209837)
(-0.0784135 -3.14735e-19 0.0194093)
(-0.197144 3.02159e-19 0.0418198)
(-0.175502 -2.9062e-19 0.0412149)
(-0.392505 0 0.0872861)
(-0.434278 0 0.104928)
(-0.866839 0 0.189989)
(-0.847238 0 0.171546)
(-0.986255 4.85547e-19 0.166986)
(-0.233147 1.53258e-22 -0.000406224)
(-0.007168 -9.52968e-19 -0.0506116)
(0.936361 0 -0.215495)
(0.755639 0 -0.164488)
(1.43345 8.50684e-19 -0.28286)
(0.950172 0 -0.18654)
(1.64726 -7.67447e-19 -0.326584)
(1.28332 0 -0.261711)
(2.11042 -1.39153e-18 -0.425053)
(1.93196 0 -0.398797)
(2.87208 0 -0.57521)
(2.73531 6.02929e-19 -0.559695)
(3.87541 0 -0.781597)
(32.6458 0 0.661576)
(32.9478 -5.29117e-21 0.706151)
(33.2853 0 0.657859)
(33.6164 -6.64333e-21 0.495929)
(33.8781 -1.35456e-20 0.235183)
(34.0197 0 -0.0926595)
(34.0128 6.75946e-21 -0.456181)
(33.8459 0 -0.829288)
(33.5196 8.99519e-22 -1.19179)
(33.0435 -2.60419e-20 -1.52923)
(32.4336 0 -1.8323)
(31.7099 0 -2.0961)
(30.8948 -1.11541e-20 -2.31903)
(30.0104 0 -2.50184)
(29.0778 0 -2.64679)
(28.1157 0 -2.75714)
(27.1404 -1.65047e-20 -2.83667)
(26.165 -1.52166e-20 -2.88932)
(25.2002 -1.38194e-20 -2.91895)
(24.254 0 -2.92919)
(23.3321 0 -2.92331)
(22.4386 -1.07971e-20 -2.9042)
(21.5761 9.86535e-21 -2.87438)
(20.7459 -8.99636e-21 -2.83598)
(19.9487 -1.6373e-20 -2.79081)
(19.1844 2.96586e-20 -2.74037)
(18.4524 -5.49304e-23 -2.68591)
(17.7521 -1.21539e-20 -2.62847)
(17.0823 -1.09402e-20 -2.56889)
(16.4418 0 -2.50787)
(15.8294 0 -2.44598)
(15.2437 -7.79632e-21 -2.38366)
(14.6835 0 -2.32131)
(14.1475 1.21188e-20 -2.2592)
(13.6344 1.05691e-20 -2.19759)
(13.143 -9.12872e-21 -2.13666)
(12.6721 0 -2.07655)
(12.2207 6.58351e-21 -2.01738)
(11.7875 5.45549e-21 -1.95923)
(11.3718 3.23284e-24 -1.90217)
(10.9723 -6.90842e-21 -1.84624)
(10.5884 0 -1.79146)
(10.2191 -3.51007e-21 -1.73786)
(9.86353 0 -1.68543)
(9.52106 0 -1.63417)
(9.19092 0 -1.58407)
(8.87243 1.31512e-23 -1.53511)
(8.56495 0 -1.48727)
(8.26788 -3.72891e-21 -1.44053)
(7.98066 9.16549e-21 -1.39486)
(7.70273 1.07373e-20 -1.35023)
(7.43359 0 -1.30661)
(7.17276 -1.33995e-20 -1.26396)
(6.91979 -2.90153e-20 -1.22225)
(6.67424 0 -1.18145)
(6.43572 0 -1.14153)
(6.20382 1.71519e-20 -1.10245)
(5.97819 1.78022e-20 -1.06418)
(5.75849 -1.83932e-20 -1.02668)
(5.54438 -3.77285e-20 -0.98993)
(5.33558 0 -0.953892)
(5.13175 0 -0.918529)
(4.93269 2.76515e-23 -0.88383)
(4.73804 -4.00812e-20 -0.84974)
(4.54772 0 -0.816273)
(4.36128 4.05227e-20 -0.783347)
(4.17883 0 -0.751019)
(3.99977 0 -0.719161)
(3.82444 0 -0.687892)
(3.65205 0 -0.657022)
(3.48326 3.344e-23 -0.626752)
(3.31697 -3.15498e-23 -0.596811)
(3.15426 -7.80491e-20 -0.567495)
(2.99367 0 -0.538444)
(2.83671 -7.59831e-20 -0.510056)
(2.68159 0 -0.481893)
(2.53021 -1.47107e-19 -0.454432)
(2.38052 1.44377e-19 -0.427178)
(2.23467 -1.41563e-19 -0.40065)
(2.0905 -1.3866e-19 -0.37434)
(1.95022 0 -0.348768)
(1.8118 1.32461e-19 -0.323479)
(1.67739 0 -0.298977)
(1.54543 -1.26014e-19 -0.274887)
(1.41775 -1.22683e-19 -0.251675)
(1.29324 2.38653e-19 -0.228899)
(1.17249 0 -0.206968)
(1.05594 -4.50031e-19 -0.185529)
(0.941566 0 -0.164837)
(0.834544 2.11342e-19 -0.145045)
(0.725521 0 -0.125487)
(0.631583 1.97794e-19 -0.108139)
(0.526828 0 -0.0893623)
(0.448685 3.68969e-19 -0.0747806)
(0.343652 -3.55749e-19 -0.0560276)
(0.286834 3.43135e-19 -0.0452259)
(0.173974 3.30243e-19 -0.0242683)
(0.133749 0 -0.0161337)
(0.00555362 -6.11213e-19 0.00614027)
(0.0116394 5.88783e-19 0.00447552)
(-0.12979 0 0.0310323)
(-0.104485 2.71799e-19 0.0311592)
(-0.354847 0 0.0848888)
(-0.388266 0 0.103954)
(-0.858822 -4.74791e-19 0.195431)
(-0.782341 0 0.160444)
(-0.919723 0 0.14397)
(-0.0350691 4.5438e-19 -0.0546594)
(0.183505 8.90488e-19 -0.105308)
(1.25948 4.35694e-19 -0.289183)
(1.01361 0 -0.220523)
(1.8157 0 -0.358605)
(1.23635 0 -0.243552)
(2.0843 0 -0.414488)
(1.63085 6.84428e-19 -0.334272)
(2.61963 6.49934e-19 -0.530613)
(2.38752 0 -0.495994)
(3.46694 0 -0.698733)
(3.31747 0 -0.683434)
(4.57843 0 -0.929605)
(32.6461 4.24876e-21 0.372787)
(32.8786 0 0.389867)
(33.1348 4.96429e-21 0.350317)
(33.4001 0 0.238079)
(33.6437 6.06168e-21 0.0536767)
(33.8341 0 -0.188204)
(33.9485 -6.35303e-21 -0.468428)
(33.9719 1.16604e-20 -0.769058)
(33.8951 2.38011e-20 -1.07493)
(33.7135 7.27543e-22 -1.37406)
(33.4266 0 -1.65744)
(33.0379 0 -1.91887)
(32.554 0 -2.15448)
(31.9839 0 -2.36219)
(31.3387 0 -2.54128)
(30.6302 0 -2.69199)
(29.871 1.48778e-20 -2.81535)
(29.0731 -1.37959e-20 -2.91294)
(28.2482 1.29848e-20 -2.98673)
(27.4066 0 -3.03894)
(26.5575 0 -3.07188)
(25.7087 9.94383e-21 -3.08787)
(24.8666 9.10943e-21 -3.08915)
(24.0365 8.32567e-21 -3.07781)
(23.2222 0 -3.05579)
(22.4269 -1.39002e-20 -3.02481)
(21.6527 -2.51149e-20 -2.98641)
(20.9011 1.13197e-20 -2.94193)
(20.173 0 -2.89254)
(19.469 0 -2.83924)
(18.789 0 -2.7829)
(18.133 7.289e-21 -2.72424)
(17.5006 0 -2.66388)
(16.8912 0 -2.60234)
(16.3043 9.90154e-21 -2.54006)
(15.7391 8.57558e-21 -2.47739)
(15.1949 0 -2.41464)
(14.6708 6.17931e-21 -2.35207)
(14.166 -1.02468e-20 -2.28986)
(13.6797 -4.14731e-21 -2.2282)
(13.2112 3.24647e-21 -2.16721)
(12.7596 0 -2.107)
(12.3241 0 -2.04765)
(11.904 0 -1.98923)
(11.4985 6.31545e-22 -1.93178)
(11.107 0 -1.87534)
(10.7287 1.62377e-21 -1.81993)
(10.363 2.58826e-21 -1.76555)
(10.0093 0 -1.71222)
(9.66702 -4.29695e-21 -1.65993)
(9.33549 0 -1.60866)
(9.01422 0 -1.5584)
(8.70267 -1.25358e-20 -1.50914)
(8.40035 2.09628e-23 -1.46086)
(8.10677 1.45198e-20 -1.41353)
(7.82148 0 -1.36712)
(7.54405 0 -1.32161)
(7.27406 -1.67072e-20 -1.27697)
(7.01112 0 -1.23316)
(6.75485 3.54033e-20 -1.19017)
(6.50492 0 -1.14797)
(6.26093 0 -1.10651)
(6.02266 7.44589e-20 -1.06578)
(5.78967 7.51754e-20 -1.02574)
(5.56189 3.78182e-20 -0.98639)
(5.33876 0 -0.94765)
(5.12042 0 -0.909587)
(4.90617 3.7963e-20 -0.872054)
(4.69639 7.56494e-20 -0.835192)
(4.49015 0 -0.798782)
(4.28823 7.46846e-20 -0.763061)
(4.08933 -7.3998e-20 -0.727712)
(3.89471 7.31659e-20 -0.693087)
(3.70265 -7.22233e-20 -0.65876)
(3.51492 7.12167e-20 -0.625208)