/*--------------------------------*- C++ -*----------------------------------*\
| =========                 |                                                 |
| \\      /  F ield         | OpenFOAM: The Open Source CFD Toolbox           |
|  \\    /   O peration     | Version:  2412                                  |
|   \\  /    A nd           | Website:  www.openfoam.com                      |
|    \\/     M anipulation  |                                                 |
\*---------------------------------------------------------------------------*/
FoamFile
{
    version     2.0;
    format      ascii;
    arch        "LSB;label=32;scalar=64";
    class       volVectorField;
    location    "1.07";
    object      ddt0(U);
}
// * * * * * * * * * * * * * * * * * * * * * * * * * * * * * * * * * * * * * //

dimensions      [0 1 -2 0 0 0 0];

internalField   nonuniform List<vector> 
12600
(
(-0.0807409 -3.22417e-21 -0.153998)
(-0.203807 -4.14338e-21 -0.0326643)
(-0.0605661 -3.6609e-21 0.00624662)
(-0.0120772 0 0.00886429)
(0.00244611 -2.72542e-21 0.00768206)
(0.0156838 -2.31875e-21 0.00650926)
(0.0283956 0 0.00559296)
(0.0383478 0 0.00368614)
(0.0445647 5.08381e-21 0.00183276)
(0.0473996 0 0.000107224)
(0.0473203 -1.5694e-21 -0.00147058)
(0.0448153 -1.25376e-21 -0.00282153)
(0.0403095 1.05045e-21 -0.00385734)
(0.0342292 0 -0.00452546)
(0.0270511 9.50449e-22 -0.00481006)
(0.0192577 0 -0.0047186)
(0.0112771 -4.56271e-21 -0.00427748)
(0.00346299 0 -0.00353461)
(-0.00388363 2.94047e-21 -0.00256149)
(-0.0104789 3.29907e-21 -0.00145203)
(-0.0160365 -3.61298e-21 -0.000314804)
(-0.0202883 -1.60446e-23 0.000743022)
(-0.0230438 0 0.00163623)
(-0.0242529 8.37513e-21 0.00231645)
(-0.0240237 0 0.00277362)
(-0.0225779 0 0.00302472)
(-0.020171 8.14031e-21 0.00309784)
(-0.0170222 0 0.00301925)
(-0.0132854 4.64446e-25 0.00280724)
(-0.00905955 -6.42343e-21 0.00247218)
(-0.00442099 -5.56305e-21 0.00202028)
(0.000539668 -4.58536e-21 0.00145878)
(0.00568955 3.5174e-21 0.000800766)
(0.0108402 4.78584e-21 6.85576e-05)
(0.0157514 2.50252e-21 -0.00070477)
(0.0201546 -2.22825e-22 -0.00147703)
(0.0237868 0 -0.00220049)
(0.0264365 -3.71256e-21 -0.00282938)
(0.0279742 0 -0.00332568)
(0.0283813 6.61917e-21 -0.00366695)
(0.0277295 0 -0.00384475)
(0.026183 -4.07217e-23 -0.0038688)
(0.0239418 0 -0.00375688)
(0.0212645 -1.84867e-23 -0.00354159)
(0.0183803 1.66612e-20 -0.00325096)
(0.0155513 -1.58459e-20 -0.00292348)
(0.0129385 1.47797e-20 -0.00257922)
(0.0107533 0 -0.00225542)
(0.00905096 0 -0.00196174)
(0.00797863 1.1271e-20 -0.00173705)
(0.00740311 2.07049e-20 -0.00156895)
(0.00732811 1.92892e-20 -0.00148395)
(0.00734763 -5.15745e-25 -0.00142637)
(0.0073661 1.74466e-20 -0.00140556)
(0.00679416 0 -0.00131876)
(0.00567342 -1.55625e-20 -0.00118025)
(0.00347789 -1.40621e-20 -0.000868655)
(0.000743521 -1.2057e-20 -0.000464371)
(-0.00277414 0 0.000123472)
(-0.00588369 0 0.000695196)
(-0.00871633 0 0.00131201)
(-0.0097021 7.52567e-21 0.00167552)
(-0.00943291 0 0.00189999)
(-0.00640638 0 0.00166054)
(-0.00219639 -3.33145e-20 0.00122159)
(0.00443395 0 0.000282506)
(0.010754 0 -0.000689899)
(0.0178917 0 -0.00197166)
(0.0222211 1.14085e-19 -0.00290586)
(0.0252809 -1.27075e-19 -0.00379845)
(0.02338 -1.31589e-19 -0.00391321)
(0.0191587 2.18255e-24 -0.00369075)
(0.0101899 1.08908e-19 -0.00257118)
(-0.00011179 0 -0.00111508)
(-0.0114671 -5.51469e-20 0.000702019)
(-0.0230062 0 0.00275351)
(-0.029119 0 0.00395333)
(-0.0385807 0 0.00596325)
(-0.0339491 1.6065e-22 0.00535671)
(-0.0425605 8.77288e-20 0.00735622)
(-0.0276877 9.1741e-20 0.00481411)
(-0.035538 -8.7461e-20 0.00661492)
(-0.0220116 -7.89387e-20 0.00420379)
(-0.0167403 0 0.00335728)
(-0.0314869 0 0.00621507)
(0.018249 1.05697e-19 -0.00323993)
(-0.0731839 -1.43387e-19 0.0142826)
(0.0927528 1.75548e-19 -0.0174522)
(-0.123275 1.56488e-20 0.0252277)
(-0.00910721 0 0.00194512)
(0.243879 -6.77655e-20 -0.0462011)
(-0.414324 -1.51688e-20 0.0782293)
(0.438205 -1.16384e-19 -0.0846893)
(-0.969527 -7.9154e-19 0.0756607)
(1.40554 0 -0.265707)
(-0.777105 0 0.177728)
(-1.541 0 0.262086)
(3.49572 0 -0.615365)
(-3.59957 0 0.698286)
(4.07643 0 -0.784783)
(-3.19626 1.93997e-18 0.661935)
(0.353588 -4.3097e-19 -0.133657)
(5.52811 -1.0806e-17 -0.979717)
(-9.96334 0 1.80792)
(7.43785 0 -1.39832)
(-6.45395 0 1.31141)
(1.45852 -3.03803e-18 -0.276454)
(6.8526 -3.31498e-19 -1.25586)
(-10.8934 -1.63042e-18 2.03488)
(10.1275 0 -1.95395)
(-6.42924 5.07725e-18 1.33916)
(-3.03906 0 0.561802)
(11.3247 -1.88225e-18 -2.147)
(-5.4905 -2.44748e-18 1.10239)
(-2.93989 -5.11005e-19 0.496937)
(3.42931 -1.61461e-18 -0.665788)
(1.72216 -4.93002e-19 -0.292219)
(-4.20803 -3.6335e-22 0.819377)
(-2.28053 1.26311e-19 0.412716)
(0.961149 0 -0.193818)
(-0.285121 3.25629e-21 -0.287424)
(-0.326322 0 -0.102546)
(-0.228411 3.70487e-21 -0.00989408)
(-0.152204 0 0.0133975)
(-0.104821 2.76163e-21 0.0181693)
(-0.0663396 4.68968e-21 0.0176612)
(-0.033302 1.96771e-21 0.0155768)
(-0.00593208 0 0.0121845)
(0.0157759 3.01684e-23 0.00857908)
(0.0320601 2.07856e-21 0.00471209)
(0.043707 -1.64307e-21 0.000635281)
(0.0513065 -1.31802e-21 -0.00332804)
(0.0551028 1.10391e-21 -0.00681988)
(0.0552545 -9.94648e-22 -0.00960069)
(0.0520349 -1.94299e-21 -0.0115257)
(0.0458204 0 -0.0124983)
(0.0370363 -3.8052e-24 -0.0124784)
(0.0261702 -2.6256e-21 -0.0115124)
(0.0138369 -2.98294e-21 -0.00974923)
(0.000838288 0 -0.00743224)
(-0.0118479 0 -0.00486148)
(-0.0231996 -3.91392e-21 -0.00232936)
(-0.0323693 0 -5.48763e-05)
(-0.0388789 -4.2388e-21 0.00184949)
(-0.0426763 8.52378e-21 0.00336387)
(-0.0440292 0 0.00451848)
(-0.0433355 -8.21056e-21 0.00535236)
(-0.0409611 0 0.00589147)
(-0.0371659 7.23872e-21 0.00614484)
(-0.0321115 1.30119e-20 0.00611047)
(-0.0259084 1.12752e-20 0.00578295)
(-0.0186695 4.64123e-21 0.00516087)
(-0.0105565 -3.55928e-21 0.00425422)
(-0.00181516 -9.74394e-21 0.00309187)
(0.00720768 -5.12984e-21 0.00172793)
(0.0160792 0 0.000240364)
(0.0243215 0 -0.0012743)
(0.0314934 6.71069e-23 -0.00271889)
(0.0372477 0 -0.00400502)
(0.0414019 -6.68229e-21 -0.00507248)
(0.0439007 0 -0.00587845)
(0.0448488 -1.65523e-20 -0.00641668)
(0.0443983 0 -0.00668736)
(0.0428405 -1.72144e-20 -0.00673196)
(0.0404028 0 -0.00657099)
(0.0374441 1.59559e-20 -0.00626949)
(0.0341223 0 -0.00583724)
(0.0308253 0 -0.00536152)
(0.0276196 -1.24618e-20 -0.00484046)
(0.0249458 0 -0.00439221)
(0.0226166 0 -0.00396662)
(0.020978 0 -0.00368581)
(0.0193784 -1.83201e-20 -0.0034028)
(0.0181025 -3.49788e-20 -0.00324043)
(0.016035 0 -0.00292611)
(0.0136711 0 -0.00261705)
(0.00964462 1.40911e-20 -0.00193805)
(0.00520501 1.20565e-20 -0.00119873)
(-0.000957718 0 3.87647e-06)
(-0.00640055 0 0.00108077)
(-0.0125193 0 0.00246422)
(-0.0158064 0 0.00327741)
(-0.018532 7.47058e-21 0.00413417)
(-0.0165627 -1.0314e-20 0.00395136)
(-0.0138984 3.29868e-20 0.00372137)
(-0.0060205 0 0.00221858)
(0.000820273 0 0.000958375)
(0.0116207 0 -0.00142868)
(0.0179374 -3.0388e-22 -0.00286893)
(0.0257193 1.2586e-19 -0.00495471)
(0.0253934 1.30212e-19 -0.00522158)
(0.0243993 -2.47259e-19 -0.00561906)
(0.0146397 1.14851e-22 -0.00382483)
(0.00353503 8.31013e-20 -0.00196392)
(-0.0107456 5.43625e-20 0.00113838)
(-0.0288177 0 0.00465783)
(-0.035903 0 0.0066199)
(-0.059406 0 0.011226)
(-0.0465058 7.14465e-20 0.0092342)
(-0.0788448 0 0.0154239)
(-0.0420081 0 0.00850408)
(-0.0783542 8.55998e-20 0.015462)
(-0.0434831 7.71765e-20 0.00858777)
(-0.0423607 0 0.0084424)
(-0.084758 0 0.0163319)
(0.049762 0 -0.00928671)
(-0.213108 1.39558e-19 0.0406803)
(0.266447 1.47047e-22 -0.0518302)
(-0.384611 1.53639e-20 0.0787563)
(0.0221365 -5.95672e-20 -0.0121697)
(0.64887 6.65367e-20 -0.117874)
(-1.18878 -1.52862e-20 0.22839)
(1.29375 2.25146e-19 -0.247489)
(-2.64568 0 0.398335)
(4.05897 0 -0.794029)
(-2.57154 0 0.555824)
(-3.77063 0 0.606861)
(9.79939 6.42855e-19 -1.80265)
(-10.8414 0 2.10806)
(11.8598 0 -2.33153)
(-9.73468 1.8719e-18 2.0208)
(2.32261 2.05346e-19 -0.550205)
(14.7539 2.07315e-17 -2.608)
(-27.9751 5.72446e-17 5.21051)
(22.162 0 -4.27751)
(-20.7234 0 4.20686)
(6.00356 0 -1.50484)
(18.3086 1.61507e-19 -3.30435)
(-29.9098 1.55167e-18 5.68665)
(29.8324 0 -5.86191)
(-21.6162 -9.62324e-18 4.50721)
(-6.21005 1.06659e-18 0.875914)
(32.0721 3.58939e-18 -6.07703)
(-17.2044 0 3.5817)
(-6.88181 0 1.16693)
(9.97401 -1.53082e-18 -1.99748)
(3.71016 0 -0.590064)
(-12.5221 1.25683e-18 2.48424)
(-5.88959 -1.13723e-19 1.04059)
(3.06364 0 -0.64408)
(-0.318017 0 -0.217386)
(-0.34603 0 -0.109794)
(-0.310978 3.23329e-21 -0.0320711)
(-0.257281 0 -0.000155713)
(-0.207123 0 0.0130706)
(-0.160822 -2.24141e-21 0.0179407)
(-0.118632 -1.86323e-21 0.0187642)
(-0.0816843 0 0.0182767)
(-0.0507169 2.32374e-23 0.0164864)
(-0.0254552 -1.96897e-21 0.0129769)
(-0.00487992 3.14792e-21 0.00794493)
(0.0117497 1.24873e-21 0.00219064)
(0.0245151 3.38473e-23 -0.00348827)
(0.0331956 9.4247e-22 -0.00858335)
(0.0376511 9.27333e-22 -0.0127526)
(0.0378856 -1.00523e-21 -0.0157017)
(0.0340213 2.19444e-21 -0.0172241)
(0.0263642 2.48814e-21 -0.0172845)
(0.0155221 0 -0.0160548)
(0.0024931 0 -0.0138855)
(-0.011363 -3.42665e-21 -0.0112156)
(-0.0245396 -3.67088e-21 -0.00844108)
(-0.0357353 0 -0.00580846)
(-0.0441606 0 -0.00339445)
(-0.0496269 -8.07679e-21 -0.00117178)
(-0.0523931 0 0.000900455)
(-0.0528958 1.55234e-20 0.00282265)
(-0.0515258 -7.36195e-21 0.00455216)
(-0.0485353 0 0.00602671)
(-0.0440571 -6.16456e-21 0.00718672)
(-0.0381664 -5.34581e-21 0.00798343)
(-0.0309409 0 0.00837914)
(-0.0225084 3.39803e-21 0.00834953)
(-0.0130913 4.64367e-21 0.00789208)
(-0.0030374 -2.70647e-23 0.00703698)
(0.00718841 0 0.00584734)
(0.0170478 0 0.00441503)
(0.02603 3.48826e-21 0.00283733)
(0.0337163 0 0.00121383)
(0.0398661 0 -0.000376489)
(0.0443524 0 -0.00184851)
(0.0472189 0 -0.00315105)
(0.0485253 0 -0.00421915)
(0.0485135 0 -0.005051)
(0.0473166 0 -0.00560097)
(0.0452876 -1.50915e-20 -0.005914)
(0.0424956 1.40861e-20 -0.00594435)
(0.03941 0 -0.00580647)
(0.0360312 1.17901e-20 -0.00545653)
(0.0329959 0 -0.00508639)
(0.0300071 0 -0.00458884)
(0.0276936 -1.83327e-20 -0.00421028)
(0.0251775 0 -0.00372399)
(0.0231382 1.65358e-20 -0.00344295)
(0.0200519 -1.5754e-20 -0.00295431)
(0.0169504 0 -0.00265633)
(0.0118043 -1.33192e-20 -0.00191595)
(0.00662829 0 -0.00133311)
(-0.000852069 0 -8.84425e-05)
(-0.00707268 0 0.000850695)
(-0.0147699 -9.73181e-21 0.00249617)
(-0.0188425 -7.19167e-21 0.00341879)
(-0.0234079 2.35305e-23 0.00495947)
(-0.0221111 1.94703e-20 0.00520135)
(-0.0214299 -4.48704e-23 0.00602721)
(-0.0138378 0 0.00503656)
(-0.00885119 0 0.00487789)
(0.00237683 8.78739e-20 0.00266285)
(0.00720164 -2.46021e-22 0.00194456)
(0.0161789 0 -0.000691654)
(0.0146877 0 -0.000875476)
(0.0151386 1.16585e-19 -0.0025772)
(0.00445542 3.2754e-23 -0.00120479)
(-0.00613993 1.12178e-22 -0.000852181)
(-0.0203953 0 0.00175869)
(-0.0411128 0 0.00458848)
(-0.0445591 -1.55701e-21 0.00604167)
(-0.0778303 4.08535e-20 0.0118721)
(-0.0523919 0 0.00830797)
(-0.106367 0 0.0185275)
(-0.044092 0 0.00751486)
(-0.111198 0 0.0209249)
(-0.0505209 0 0.00896814)
(-0.0610818 0 0.0125085)
(-0.124199 0 0.0229374)
(0.0835678 0 -0.0141112)
(-0.340393 -1.31179e-19 0.062915)
(0.437588 -8.04078e-20 -0.0826827)
(-0.653418 -1.44398e-20 0.136198)
(0.105762 5.59749e-20 -0.0518129)
(0.974498 -6.34084e-20 -0.156129)
(-1.90799 1.43587e-20 0.360033)
(2.12953 -1.05736e-19 -0.393422)
(-4.13332 0 0.74832)
(6.54843 0 -1.28815)
(-4.54852 0 1.16887)
(-5.22035 0 0.632649)
(15.4248 -6.03097e-19 -2.77973)
(-17.9885 0 3.4823)
(19.326 0 -3.81737)
(-16.4475 -1.75512e-18 3.49553)
(5.30882 0 -1.69618)
(22.4614 -9.73836e-18 -3.57656)
(-44.0798 -5.36448e-17 8.11229)
(36.4173 0 -7.14856)
(-36.1803 0 7.51667)
(12.008 0 -3.42769)
(27.6071 1.71765e-19 -4.52936)
(-45.8384 0 8.50143)
(48.9307 -3.38752e-18 -9.64363)
(-38.9984 1.74241e-20 8.45636)
(-6.60912 -9.98313e-19 0.301754)
(50.7313 -3.39502e-18 -9.35553)
(-29.3577 0 6.44528)
(-9.01595 4.31614e-19 1.17825)
(16.0028 1.4319e-18 -3.26975)
(4.43695 -4.20886e-19 -0.415616)
(-20.5924 0 4.14734)
(-8.61156 1.0635e-19 1.33342)
(5.24939 0 -1.17676)
(-0.305909 0 -0.154472)
(-0.331512 0 -0.102202)
(-0.326324 -3.05648e-21 -0.0480951)
(-0.296221 0 -0.0167072)
(-0.259462 2.35725e-21 -0.000144814)
(-0.221533 -4.12177e-21 0.00865637)
(-0.183486 0 0.0138343)
(-0.14709 2.90441e-21 0.017493)
(-0.114343 -2.36463e-21 0.0189914)
(-0.0860131 -1.9181e-21 0.0171835)
(-0.0615006 -1.50466e-21 0.0122721)
(-0.0400559 1.25402e-21 0.00567819)
(-0.021681 -1.0211e-21 -0.00119915)
(-0.00690413 1.91787e-21 -0.00755443)
(0.00376405 0 -0.0129114)
(0.00997702 1.93096e-21 -0.0168548)
(0.0115254 0 -0.0190838)
(0.00844165 0 -0.0195531)
(0.00117356 0 -0.018516)
(-0.00929679 -2.97451e-21 -0.0164605)
(-0.0214676 3.79986e-24 -0.0139537)
(-0.0335621 1.30348e-23 -0.0114399)
(-0.0439788 -3.6274e-21 -0.00910163)
(-0.0517142 0 -0.00687911)
(-0.0565053 0 -0.00461805)
(-0.0586473 0 -0.00222392)
(-0.0586498 -1.45946e-20 0.000274969)
(-0.0569491 4.91364e-23 0.00275918)
(-0.0537924 0 0.00508325)
(-0.0492738 0 0.00712178)
(-0.0434196 0 0.00877911)
(-0.0362604 0 0.00998167)
(-0.0278781 -6.41383e-21 0.0106751)
(-0.0184531 0 0.0108334)
(-0.0083046 2.35297e-21 0.0104721)
(0.00211233 0 0.00964565)
(0.0122536 0 0.00844022)
(0.0216036 -3.22267e-21 0.00694413)
(0.0297408 0 0.00525378)
(0.0364325 0 0.00345122)
(0.0415388 6.7391e-21 0.00164878)
(0.0450912 -1.46372e-20 -7.19785e-05)
(0.0470969 0 -0.00159602)
(0.0477776 -1.53052e-20 -0.00289336)
(0.0471955 0 -0.00386714)
(0.0457099 2.85009e-20 -0.00455595)
(0.0433053 -5.71979e-24 -0.00487059)
(0.0405156 0 -0.00496076)
(0.0372445 0 -0.00474256)
(0.034274 -1.01521e-20 -0.00447644)
(0.0311506 -1.86266e-20 -0.00398718)
(0.0287305 3.46309e-20 -0.00363012)
(0.0258722 0 -0.00307943)
(0.0236066 1.56035e-20 -0.00281626)
(0.0199937 1.48712e-20 -0.00226607)
(0.0165898 1.38969e-20 -0.00205236)
(0.0107372 1.25701e-20 -0.00127788)
(0.00522424 0 -0.000838396)
(-0.00313412 0 0.000484474)
(-0.00966584 1.2997e-20 0.00131964)
(-0.018413 1.84253e-20 0.00322926)
(-0.022747 6.78297e-21 0.00420608)
(-0.0286185 4.78656e-23 0.00629716)
(-0.0275715 -9.17548e-21 0.00674888)
(-0.0285464 -1.45979e-20 0.00834006)
(-0.0211632 0 0.00752839)
(-0.0181417 0 0.0081318)
(-0.00693564 -8.28106e-20 0.00580578)
(-0.00423144 -1.99805e-19 0.00563571)
(0.00501771 0 0.00244278)
(0.00142413 -1.15228e-19 0.00254159)
(0.00228048 -1.09617e-19 -7.4217e-05)
(-0.0101169 -9.56342e-20 0.00146685)
(-0.0208708 -1.47788e-19 0.000937924)
(-0.0353303 0 0.00378482)
(-0.058706 0 0.00638982)
(-0.0580551 1.46513e-21 0.0078596)
(-0.100653 -7.6507e-20 0.0149052)
(-0.0615429 -6.25827e-20 0.00990311)
(-0.137193 0 0.0238144)
(-0.0471122 0 0.00825663)
(-0.14748 0 0.0282671)
(-0.0556997 0 0.00962113)
(-0.0849366 0 0.018606)
(-0.159547 0 0.0282907)
(0.110042 -9.13013e-20 -0.0162323)
(-0.461532 4.47766e-23 0.0824864)
(0.597723 7.572e-20 -0.109531)
(-0.930726 0 0.196968)
(0.23529 5.23038e-20 -0.106882)
(1.20673 2.99532e-20 -0.165811)
(-2.55579 0 0.469611)
(2.92358 -9.88183e-20 -0.522961)
(-5.47639 -2.12724e-21 0.942786)
(8.84485 0 -1.73991)
(-6.67268 0 1.86328)
(-5.91915 0 0.416573)
(20.259 -5.73679e-19 -3.48973)
(-24.8017 0 4.78152)
(26.361 0 -5.26018)
(-23.3118 -1.64469e-18 5.0942)
(9.35835 -1.75338e-19 -2.56658)
(28.5851 0 -4.00194)
(-57.8455 0 10.5315)
(49.7973 0 -9.88149)
(-52.4787 0 11.1027)
(19.2609 0 -5.6631)
(34.567 1.0382e-20 -5.10626)
(-58.1055 0 10.5676)
(66.9304 3.16993e-18 -13.2143)
(-58.0275 4.18708e-18 12.9303)
(-4.50125 0 -1.56028)
(66.769 -2.59316e-20 -12.1417)
(-41.4445 0 9.50605)
(-9.41438 -8.34956e-21 0.775096)
(21.2066 0 -4.41454)
(4.0339 3.93538e-19 0.0905984)
(-28.1207 0 5.74382)
(-10.4558 9.28407e-20 1.37899)
(7.40226 0 -1.74769)
(-0.293162 0 -0.128)
(-0.30918 0 -0.0976701)
(-0.311876 0 -0.0583995)
(-0.295247 0 -0.0296269)
(-0.27105 -2.22502e-21 -0.0122941)
(-0.244954 4.17644e-23 -0.00196383)
(-0.217258 0 0.00531001)
(-0.18847 -2.7412e-21 0.0115488)
(-0.160416 0 0.0157957)
(-0.134571 3.6459e-21 0.0159676)
(-0.110974 0 0.011736)
(-0.0890238 -1.18379e-21 0.00490802)
(-0.0687517 0 -0.0024622)
(-0.0509094 -1.81065e-21 -0.00924063)
(-0.0363225 9.26652e-22 -0.0148808)
(-0.0256401 -1.88812e-21 -0.018919)
(-0.0194057 2.08974e-21 -0.0210164)
(-0.0179432 2.31457e-21 -0.0211746)
(-0.0211153 0 -0.0197816)
(-0.0281642 2.80876e-21 -0.0174986)
(-0.0376746 3.05697e-21 -0.0150374)
(-0.0477643 6.52185e-21 -0.0128785)
(-0.0565764 3.42524e-21 -0.0110925)
(-0.0628461 0 -0.00940848)
(-0.0661702 0 -0.00747249)
(-0.0668508 0 -0.00508928)
(-0.0654896 6.86506e-21 -0.00229931)
(-0.0626158 6.52749e-21 0.000697736)
(-0.058515 0 0.00366386)
(-0.0532677 0 0.00640197)
(-0.0468656 -4.69071e-21 0.00876921)
(-0.039307 0 0.0106593)
(-0.0306423 2.61751e-23 0.0119927)
(-0.0210168 4.11936e-21 0.012726)
(-0.0107157 -2.21307e-21 0.0128663)
(-0.000171285 0 0.0124622)
(0.0100819 0 0.0115916)
(0.0195377 3.04162e-21 0.0103243)
(0.0277854 0 0.00874037)
(0.0346145 0 0.0069112)
(0.0398884 -6.35943e-21 0.00496587)
(0.0436445 1.38117e-20 0.00300672)
(0.0458555 0 0.00119278)
(0.0467436 1.44402e-20 -0.000425498)
(0.0463211 0 -0.00170256)
(0.0449782 -1.3436e-20 -0.00267674)
(0.0426319 -1.25469e-20 -0.00321372)
(0.0398906 0 -0.00350352)
(0.0365563 -1.05191e-20 -0.00341332)
(0.0335503 9.57403e-21 -0.00327369)
(0.0302491 3.51409e-20 -0.00282288)
(0.0277274 -1.63309e-20 -0.00252798)
(0.024564 1.54289e-20 -0.00193927)
(0.02213 -4.88978e-24 -0.00171743)
(0.0180542 0 -0.00109919)
(0.0144119 -1.30984e-20 -0.000964105)
(0.00791038 -1.18466e-20 -0.000125552)
(0.00210991 1.01696e-20 0.000169905)
(-0.00708603 -8.20937e-21 0.00157454)
(-0.0139018 -1.22451e-20 0.00224633)
(-0.0236772 -8.70945e-21 0.00436529)
(-0.0282623 6.52072e-21 0.00527668)
(-0.0354152 -6.33245e-21 0.00784324)
(-0.0345974 0 0.00839064)
(-0.0371722 0 0.0107394)
(-0.0299599 -2.09224e-20 0.010081)
(-0.0288311 0 0.0115789)
(-0.0176441 0 0.00924218)
(-0.0170416 9.38873e-20 0.00989844)
(-0.0076381 0 0.0063262)
(-0.0134351 1.08412e-19 0.00704396)
(-0.0124594 2.0607e-19 0.00361891)
(-0.0267986 0 0.00556583)
(-0.0381437 6.95253e-20 0.00399845)
(-0.0531 0 0.00712815)
(-0.0796316 0 0.00902235)
(-0.0750985 -6.39754e-22 0.0104893)
(-0.127569 3.57811e-20 0.0180946)
(-0.0745925 2.9028e-22 0.0117644)
(-0.172985 0 0.0289331)
(-0.0535424 0 0.00881875)
(-0.19041 0 0.0359999)
(-0.0625358 -6.40971e-20 0.00948724)
(-0.118081 5.65463e-20 0.0265048)
(-0.194323 0 0.0320637)
(0.124729 1.71477e-19 -0.014751)
(-0.579697 5.7772e-20 0.0987354)
(0.741702 -1.42222e-19 -0.132141)
(-1.21533 -1.28275e-20 0.261313)
(0.401962 -9.79817e-20 -0.181554)
(1.33769 0 -0.138345)
(-3.1153 0 0.551283)
(3.65611 9.26573e-20 -0.629359)
(-6.6638 1.99852e-21 1.08939)
(10.914 -5.63855e-19 -2.13941)
(-8.88856 0 2.52909)
(-5.94145 0 -0.062372)
(24.2168 5.37489e-19 -3.93322)
(-31.0477 -7.55044e-19 5.94123)
(32.8539 0 -6.60418)
(-30.2402 1.54031e-18 6.74796)
(13.9537 1.64214e-19 -4.76094)
(33.085 0 -3.83604)
(-68.9536 0 12.3056)
(61.9858 0 -12.3512)
(-69.1434 0 14.8622)
(27.248 0 -8.525)
(39.0707 -1.60071e-19 -4.90087)
(-66.3514 0 11.6599)
(83.5228 0 -16.3947)
(-78.0169 0 17.8138)
(-0.294946 9.64996e-19 -4.23066)
(79.8718 1.51725e-18 -14.1457)
(-52.8305 0 12.6442)
(-8.34667 -3.69634e-19 -0.236502)
(25.3318 0 -5.33904)
(2.73612 3.59853e-19 0.942913)
(-34.8174 0 7.18136)
(-11.4996 -8.67836e-20 1.13665)
(9.41631 0 -2.34038)
(-0.282632 2.63556e-21 -0.115918)
(-0.289203 2.55283e-21 -0.0931492)
(-0.29203 -2.39707e-21 -0.0635564)
(-0.281658 -2.19856e-21 -0.0387512)
(-0.264764 0 -0.021772)
(-0.246547 1.7794e-21 -0.0106895)
(-0.227381 0 -0.00261009)
(-0.206822 -2.54115e-21 0.00460856)
(-0.185781 -2.12332e-21 0.0102766)
(-0.165645 -3.48338e-21 0.0118401)
(-0.146764 1.4444e-21 0.00821041)
(-0.12848 -1.20624e-21 0.00121318)
(-0.110482 0 -0.00649123)
(-0.093351 0 -0.0133958)
(-0.0779516 -8.7358e-22 -0.018932)
(-0.0650434 -4.37708e-23 -0.0226431)
(-0.055416 7.26273e-23 -0.0241654)
(-0.0498116 5.59841e-23 -0.023563)
(-0.0485864 0 -0.0213875)
(-0.0514825 0 -0.0185026)
(-0.0575094 0 -0.0158039)
(-0.0649662 -6.13094e-21 -0.0138514)
(-0.0718487 -3.19042e-21 -0.012615)
(-0.076553 0 -0.0115739)
(-0.0783768 0 -0.0101102)
(-0.0775005 -6.5201e-21 -0.00787504)
(-0.0745716 0 -0.0048987)
(-0.0702348 0 -0.00146509)
(-0.0648594 0 0.00208078)
(-0.0585416 0 0.00545975)
(-0.0512508 6.02066e-23 0.00848052)
(-0.0429657 0 0.0110079)
(-0.0337234 4.00075e-23 0.012941)
(-0.0236469 -3.88311e-21 0.0142214)
(-0.012986 3.66896e-23 0.0148505)
(-0.00213872 0 0.0148736)
(0.00837809 0 0.0143608)
(0.0180678 0 0.0133605)
(0.0265244 0 0.0119329)
(0.0335561 0 0.0101333)
(0.0390281 0 0.0081057)
(0.0429872 0 0.00597011)
(0.04537 -1.34243e-20 0.003929)
(0.0464021 -1.35107e-20 0.00204788)
(0.0460467 0 0.000520638)
(0.0447384 -1.2607e-20 -0.000697375)
(0.0423311 0 -0.00142326)
(0.0395197 0 -0.00189425)
(0.0359975 1.98135e-20 -0.00191938)
(0.0328348 0 -0.00190702)
(0.0292275 -1.65527e-20 -0.00149223)
(0.0264848 0 -0.00126556)
(0.0228888 -2.90574e-20 -0.000630073)
(0.0201708 -5.43639e-24 -0.000446225)
(0.0155066 0 0.000268557)
(0.0115192 0 0.000344242)
(0.00425308 0 0.00129485)
(-0.00192618 -1.91407e-20 0.00147026)
(-0.0120664 1.54613e-20 0.00300771)
(-0.0192524 1.16136e-20 0.00352382)
(-0.0301695 8.32394e-21 0.00589017)
(-0.035101 -1.23478e-20 0.00671613)
(-0.0436575 -6.09105e-21 0.00978231)
(-0.043166 0 0.0103816)
(-0.0474542 0 0.0135113)
(-0.0404989 1.70309e-23 0.0129526)
(-0.041358 0 0.0153885)
(-0.0302749 0 0.0129958)
(-0.0318624 8.77577e-20 0.0145632)
(-0.0224168 0 0.0105859)
(-0.0305087 0 0.0120588)
(-0.0295748 -1.93293e-19 0.00780272)
(-0.0459455 8.42988e-20 0.0103336)
(-0.0581088 0 0.00765749)
(-0.0736372 0 0.0112824)
(-0.103637 0 0.0122812)
(-0.0952337 6.0083e-22 0.0140246)
(-0.158062 0 0.0218701)
(-0.0909329 1.09596e-19 0.0145694)
(-0.21322 -6.62893e-20 0.0347137)
(-0.0629195 0 0.0101649)
(-0.239716 0 0.0449658)
(-0.0707864 6.01478e-20 0.00946525)
(-0.160747 -5.99722e-24 0.0368635)
(-0.228275 4.33006e-20 0.034838)
(0.126885 -8.04528e-20 -0.00925881)
(-0.694523 5.40735e-20 0.1123)
(0.868489 6.6734e-20 -0.148607)
(-1.50356 1.20267e-20 0.328689)
(0.599454 1.4119e-22 -0.274404)
(1.36312 0 -0.0728142)
(-3.56824 1.30321e-20 0.598839)
(4.30434 0 -0.708343)
(-7.70411 0 1.17656)
(12.74 5.28226e-19 -2.47643)
(-11.0849 0 3.3157)
(-5.39621 0 -0.78236)
(27.2582 0 -4.08554)
(-36.5087 7.06955e-19 6.91651)
(38.6937 0 -7.82978)
(-37.1737 1.4416e-18 8.46348)
(18.9774 0 -7.4211)
(36.0381 0 -3.08223)
(-77.1847 0 13.4108)
(72.767 0 -14.4865)
(-85.5769 0 18.6895)
(35.4435 -2.1835e-18 -11.7667)
(40.9846 -1.68514e-19 -3.94888)
(-70.4109 -1.22969e-18 11.7592)
(98.5761 0 -19.1022)
(-98.0482 0 22.9345)
(5.54752 -2.40226e-18 -6.08584)
(89.694 0 -15.2794)
(-62.8146 -1.7553e-18 15.6413)
(-6.11203 0 -1.7507)
(28.2127 1.17601e-18 -6.00038)
(0.821519 -3.36305e-19 2.06253)
(-40.4198 0 8.41586)
(-11.8528 -7.37064e-20 0.643816)
(11.1989 0 -2.93338)
(-0.27249 -2.48202e-21 -0.108519)
(-0.273553 -4.71313e-21 -0.0891377)
(-0.275398 2.25794e-21 -0.0660509)
(-0.267917 8.39813e-23 -0.0452037)
(-0.254733 -1.78965e-21 -0.0291817)
(-0.24051 0 -0.0177002)
(-0.226067 0 -0.00921968)
(-0.210897 2.3928e-21 -0.00183456)
(-0.195275 3.99685e-21 0.00435718)
(-0.180392 -2.2316e-23 0.00675277)
(-0.166946 -1.35991e-21 0.00360257)
(-0.154372 1.13567e-21 -0.00359255)
(-0.141826 -1.03917e-21 -0.0117218)
(-0.129209 0 -0.0188341)
(-0.116875 0 -0.0243168)
(-0.1052 8.95679e-22 -0.0277316)
(-0.094812 -3.9296e-21 -0.0286447)
(-0.0866615 -4.27952e-21 -0.0271396)
(-0.0816042 0 -0.0239272)
(-0.0800636 0 -0.020088)
(-0.0818389 0 -0.0167506)
(-0.08587 5.8421e-24 -0.0146552)
(-0.0903363 5.98887e-21 -0.013763)
(-0.0933567 -3.04841e-21 -0.0133188)
(-0.0937842 -6.12711e-21 -0.0123834)
(-0.0914804 1.21921e-20 -0.0103806)
(-0.08701 -5.86834e-21 -0.00728359)
(-0.0811113 -5.5712e-21 -0.00345205)
(-0.0742811 -5.16222e-21 0.000646869)
(-0.0666773 0 0.00463625)
(-0.0582659 4.10684e-21 0.0082733)
(-0.0490151 -3.33276e-21 0.0114002)
(-0.0389662 2.62087e-21 0.0138999)
(-0.0282371 3.51825e-21 0.0157002)
(-0.0170427 3.80017e-21 0.0167965)
(-0.00573133 0 0.0172326)
(0.00521137 0 0.0170746)
(0.0152988 -2.65847e-21 0.0163512)
(0.0241193 0 0.0151012)
(0.0314938 4.81827e-21 0.0133608)
(0.037289 5.546e-21 0.0112878)
(0.0415684 0 0.00901694)
(0.0442302 2.52037e-20 0.00679457)
(0.0455022 1.27144e-20 0.00469467)
(0.0452869 0 0.00295931)
(0.0440703 1.18627e-20 0.00152845)
(0.0416372 1.10666e-20 0.000638387)
(0.0387836 0 -5.14433e-06)
(0.0350783 -1.86313e-20 -0.000141285)
(0.031757 8.48871e-21 -0.000268452)
(0.0278134 1.55824e-20 0.000102727)
(0.0248191 0 0.000240212)
(0.020729 -1.868e-25 0.00091886)
(0.0176738 -2.60254e-20 0.00104873)
(0.0123351 0 0.00187391)
(0.00793995 0 0.00188743)
(-0.000186974 1.04558e-20 0.00298717)
(-0.00680383 8.99672e-21 0.00304989)
(-0.0179897 -1.45506e-20 0.00477363)
(-0.025604 -1.09171e-20 0.00513632)
(-0.0377795 -7.82402e-21 0.00780485)
(-0.0431226 5.83922e-21 0.00852388)
(-0.0532165 1.15353e-20 0.0121338)
(-0.0531203 0 0.0127292)
(-0.0592629 0 0.0166767)
(-0.0526313 3.6943e-20 0.016137)
(-0.0556187 0 0.0195659)
(-0.0447112 0 0.0170384)
(-0.0486269 -8.24235e-20 0.0196252)
(-0.0392318 0 0.0151889)
(-0.0497423 9.49517e-20 0.0175991)
(-0.0489795 2.38927e-22 0.0124709)
(-0.0674663 -7.91406e-20 0.0158316)
(-0.0806441 0 0.0119572)
(-0.0967655 0 0.0163636)
(-0.130547 0 0.0162358)
(-0.118185 3.10378e-24 0.0185881)
(-0.191919 0 0.0262443)
(-0.110234 -5.12701e-20 0.01836)
(-0.257674 1.24117e-19 0.0410194)
(-0.0749618 0 0.0122)
(-0.295176 0 0.0548851)
(-0.0802318 0 0.00930409)
(-0.212843 -2.41363e-23 0.0494224)
(-0.261061 -4.05933e-20 0.0361813)
(0.116437 -7.54909e-20 0.000186187)
(-0.805686 -5.06803e-20 0.122477)
(0.977976 6.27371e-20 -0.158907)
(-1.79246 0 0.396449)
(0.822037 4.28318e-20 -0.383485)
(1.28186 0 0.0318574)
(-3.89796 -1.22054e-20 0.606709)
(4.8437 0 -0.752569)
(-8.59698 0 1.21696)
(14.3093 0 -2.74305)
(-13.2049 3.51225e-19 4.09878)
(-4.4063 -2.54467e-19 -1.67601)
(29.3781 0 -3.93381)
(-41.004 -6.63056e-19 7.66178)
(43.7901 -6.72456e-19 -8.90253)
(-43.8746 -1.34888e-18 10.1714)
(24.3945 -1.53415e-19 -9.06996)
(37.4145 0 -1.75245)
(-82.4939 0 13.8128)
(82.0367 0 -16.2161)
(-101.09 0 22.428)
(43.2502 2.04185e-18 -15.3038)
(40.2543 -9.45037e-21 -2.25371)
(-70.4728 2.31035e-18 10.8508)
(112.081 0 -21.251)
(-116.994 0 28.0615)
(11.4554 1.40528e-18 -10.5808)
(95.9547 0 -15.5033)
(-70.652 1.6404e-18 18.4886)
(-3.05461 0 -3.59747)
(29.7946 -2.2006e-18 -6.36017)
(-1.39392 0 3.38393)
(-44.7331 0 9.3834)
(-11.666 6.88749e-20 -0.0713607)
(12.6668 0 -3.4978)
(-0.262658 0 -0.103731)
(-0.260993 2.17192e-21 -0.0866049)
(-0.262152 0 -0.0675755)
(-0.256361 1.86938e-21 -0.0498559)
(-0.245538 3.30273e-21 -0.0351599)
(-0.23361 0 -0.0238088)
(-0.221622 -1.26614e-21 -0.015228)
(-0.209298 0 -0.00799332)
(-0.196772 -2.23114e-24 -0.00175049)
(-0.185033 3.16972e-21 0.00124628)
(-0.175237 0 -0.00123891)
(-0.167431 0 -0.00829065)
(-0.160675 9.7736e-22 -0.0166868)
(-0.154224 0 -0.0240755)
(-0.147683 0 -0.0297493)
(-0.140634 0 -0.0332545)
(-0.132969 1.88679e-21 -0.0339719)
(-0.12528 2.04284e-21 -0.0318577)
(-0.118525 2.27255e-21 -0.027699)
(-0.113609 0 -0.0227491)
(-0.111205 0 -0.0183772)
(-0.111317 2.70579e-21 -0.0156278)
(-0.112857 -2.8072e-21 -0.0146459)
(-0.114009 2.86712e-21 -0.0145613)
(-0.113201 5.76268e-21 -0.014102)
(-0.109788 -1.12896e-20 -0.0123767)
(-0.104039 1.0296e-22 -0.00921795)
(-0.0966746 5.23968e-21 -0.00502226)
(-0.0883304 4.85497e-21 -0.00038473)
(-0.0792902 0 0.00419854)
(-0.0695609 0 0.00842435)
(-0.0591177 3.13423e-21 0.012119)
(-0.048026 0 0.0151581)
(-0.0364273 -3.30851e-21 0.0174552)
(-0.0245156 -1.75927e-21 0.018997)
(-0.0125777 1.84183e-22 0.0198264)
(-0.00104866 0 0.0200118)
(0.00960099 2.4997e-21 0.0195665)
(0.0189427 3.61205e-21 0.0185097)
(0.0268026 -2.03316e-23 0.0168528)
(0.0330514 -1.04002e-20 0.0147654)
(0.037787 0 0.0123929)
(0.0408738 -1.18169e-20 0.0100279)
(0.0425431 0 0.00774608)
(0.042615 0 0.00583947)
(0.0416283 0 0.00422142)
(0.0392858 -3.2334e-23 0.00318804)
(0.0365053 0 0.00237452)
(0.0327096 8.75176e-21 0.00212641)
(0.0293241 -1.59504e-20 0.00183794)
(0.0251053 -1.4643e-20 0.00214979)
(0.0219273 0 0.0021632)
(0.0173705 1.28403e-20 0.00287002)
(0.0140239 2.44387e-20 0.00291036)
(0.00800846 0 0.00384493)
(0.00323732 0 0.00376875)
(-0.00577607 -9.82167e-21 0.00503964)
(-0.0128042 -8.43696e-21 0.0049716)
(-0.025084 6.83614e-21 0.00692658)
(-0.0331068 1.03298e-20 0.00711763)
(-0.0466178 0 0.0101461)
(-0.0523613 0 0.010722)
(-0.0640976 9.75118e-23 0.0149332)
(-0.0643892 7.42254e-21 0.0154545)
(-0.072514 0 0.0202738)
(-0.0662024 -1.73407e-20 0.0196489)
(-0.0714663 0 0.0241406)
(-0.0607452 0 0.0213619)
(-0.0671524 0 0.0250867)
(-0.05785 0 0.0200863)
(-0.0709334 -2.90317e-22 0.0236254)
(-0.0704361 2.65741e-22 0.0175287)
(-0.0911434 7.38782e-20 0.0219864)
(-0.105528 0 0.0167805)
(-0.122247 3.80224e-20 0.0223005)
(-0.160177 0 0.0207923)
(-0.143688 -2.90816e-24 0.0241575)
(-0.229002 2.84142e-20 0.0311787)
(-0.132234 -4.75177e-20 0.0231899)
(-0.306238 -5.80575e-20 0.0478514)
(-0.0894998 0 0.0150557)
(-0.356654 5.82527e-20 0.0657522)
(-0.0908616 0 0.00916877)
(-0.274235 -4.65821e-20 0.0641841)
(-0.292721 -3.79589e-20 0.036189)
(0.0935118 7.07199e-20 0.0136246)
(-0.913435 0 0.129395)
(1.07083 -1.17611e-19 -0.162794)
(-2.08019 0 0.463572)
(1.06455 3.99e-20 -0.504278)
(1.09389 0 0.170463)
(-4.09035 -1.19692e-20 0.571849)
(5.2483 0 -0.754087)
(-9.34177 -9.58386e-21 1.19484)
(15.6155 -4.6831e-19 -2.9311)
(-15.1711 -3.28688e-19 4.89957)
(-3.16355 2.3813e-19 -2.95529)
(30.6009 0 -3.47978)
(-44.4044 1.24149e-18 8.14362)
(48.0775 1.26012e-18 -9.79402)
(-50.1515 0 11.8239)
(29.4832 1.43514e-19 -11.7801)
(37.3201 0 0.126556)
(-85.0296 0 13.5255)
(89.78 -3.13648e-17 -17.4946)
(-114.933 0 25.9404)
(50.1259 0 -19.0279)
(36.9522 1.56036e-19 0.122311)
(-67.1364 -2.18302e-18 9.00037)
(124.051 2.45165e-18 -22.7733)
(-133.564 0 32.9516)
(16.7994 0 -16.1495)
(98.4639 0 -14.7842)
(-75.7681 0 21.0506)
(0.427092 2.76706e-19 -5.87274)
(30.1698 1.02926e-18 -6.42018)
(-3.59151 0 4.82628)
(-47.6407 0 10.058)
(-11.1108 0 -0.96756)
(13.7392 0 -4.01397)
(-0.253288 -1.92978e-21 -0.100141)
(-0.250178 0 -0.0848651)
(-0.250928 -1.73894e-21 -0.0684865)
(-0.246383 0 -0.0531837)