/*--------------------------------*- C++ -*----------------------------------*\
| =========                 |                                                 |
| \\      /  F ield         | OpenFOAM: The Open Source CFD Toolbox           |
|  \\    /   O peration     | Version:  2412                                  |
|   \\  /    A nd           | Website:  www.openfoam.com                      |
|    \\/     M anipulation  |                                                 |
\*---------------------------------------------------------------------------*/
FoamFile
{
    version     2.0;
    format      ascii;
    arch        "LSB;label=32;scalar=64";
    class       volScalarField;
    location    "0.44";
    object      p;
}
// * * * * * * * * * * * * * * * * * * * * * * * * * * * * * * * * * * * * * //

dimensions      [0 2 -2 0 0 0 0];

internalField   nonuniform List<scalar> 
12600
(
2.29558
-84.8086
-65.1788
-12.7147
33.2383
68.6028
96.8256
120.327
140.454
157.987
173.408
187.117
199.395
210.452
220.447
229.519
237.73
245.232
252.058
258.296
263.987
269.165
273.916
278.286
282.2
285.654
289.167
292.289
294.882
297.379
299.627
301.684
303.593
305.331
306.9
308.331
309.65
310.86
311.961
312.967
313.891
314.74
315.518
316.228
316.879
317.477
318.024
318.523
318.976
319.391
319.776
320.139
320.496
320.861
321.247
321.654
322.057
322.393
322.556
322.407
321.81
320.754
319.434
318.163
317.179
316.425
315.646
314.617
312.991
310.885
308.101
305.833
305.765
309.878
318.809
321.187
327.079
275.99
203.976
226.594
239.399
227.676
239.806
233.802
225.213
203.855
157.167
117.538
114.097
164.367
259.42
367.864
459.304
520.926
553.286
570.215
576.445
575.003
573.796
573.567
575.549
572.607
559.9
540.638
532.145
542.725
555.405
562.293
565.731
565.87
565.172
562.584
559.078
555.606
551.776
551.064
550.747
553.979
556.072
558.167
63.8755
-16.0385
-28.252
-2.26806
32.0713
64.4783
92.3526
116.097
136.574
154.471
170.293
184.371
196.97
208.305
218.528
227.883
236.27
243.931
250.903
257.275
263.091
268.384
273.216
277.65
281.656
285.219
288.671
291.794
294.5
297.047
299.319
301.417
303.359
305.115
306.702
308.156
309.496
310.72
311.835
312.853
313.789
314.649
315.435
316.154
316.815
317.421
317.974
318.479
318.937
319.356
319.744
320.109
320.468
320.833
321.218
321.623
322.025
322.363
322.535
322.396
321.82
320.789
319.49
318.219
317.229
316.465
315.679
314.671
313.084
311.02
308.251
305.94
305.753
309.633
318.527
320.922
327.269
277.745
205.231
226.352
239.389
227.675
239.651
233.952
225.647
205.001
158.667
118.425
113.724
162.423
256.549
364.934
457.074
519.562
552.564
569.866
576.356
575.023
573.801
573.535
575.541
572.796
560.315
541.009
532.155
542.443
555.162
562.163
565.683
565.871
565.205
562.655
559.155
555.685
551.825
551.073
550.714
553.92
556.02
558.139
90.712
32.2725
5.35176
12.7016
37.2194
65.2495
91.3564
114.495
134.835
152.764
168.656
182.83
195.54
206.991
217.335
226.727
235.242
243.016
250.062
256.502
262.394
267.761
272.638
277.117
281.233
284.934
288.264
291.375
294.226
296.814
299.109
301.235
303.198
304.97
306.573
308.043
309.395
310.63
311.754
312.781
313.725
314.591
315.384
316.108
316.774
317.384
317.942
318.45
318.912
319.334
319.723
320.091
320.45
320.815
321.2
321.603
322.003
322.342
322.516
322.389
321.828
320.812
319.522
318.253
317.257
316.49
315.699
314.706
313.139
311.105
308.353
306.018
305.738
309.496
318.358
320.765
327.439
278.703
205.951
226.186
239.393
227.672
239.557
234.048
225.897
205.596
159.494
118.943
113.435
161.475
255.185
363.607
456.012
518.893
552.2
569.684
576.306
575.034
573.805
573.516
575.538
572.874
560.497
541.183
532.155
542.336
555.057
562.105
565.66
565.872
565.22
562.678
559.179
555.711
551.838
551.077
550.7
553.894
555.997
558.125
100.032
63.6271
36.888
32.8334
46.6193
68.3721
91.5532
113.436
133.273
151.044
166.937
181.184
193.999
205.563
216.026
225.542
234.169
242.022
249.172
255.703
261.671
267.118
272.073
276.585
280.717
284.5
287.782
290.957
293.949
296.538
298.86
301.018
303
304.792
306.416
307.903
309.27
310.517
311.653
312.691
313.644
314.518
315.318
316.05
316.722
317.338
317.901
318.414
318.88
319.305
319.698
320.067
320.427
320.793
321.176
321.579
321.978
322.319
322.499
322.383
321.839
320.841
319.564
318.303
317.296
316.524
315.732
314.756
313.216
311.213
308.473
306.101
305.714
309.286
318.138
320.585
327.64
280.006
206.74
225.947
239.412
227.669
239.443
234.186
226.295
206.524
160.673
119.559
112.999
159.755
252.648
361.167
454.189
517.796
551.625
569.411
576.24
575.052
573.815
573.489
575.537
573.047
560.842
541.476
532.147
542.088
554.857
562
565.623
565.875
565.249
562.739
559.248
555.782
551.884
551.085
550.671
553.845
555.954
558.102
108.389
87.9448
66.385
56.0217
60.1684
74.6387
93.6833
113.507
132.397
149.769
165.524
179.758
192.619
204.258
214.811
224.414
233.136
241.081
248.31
254.908
260.958
266.472
271.491
276.06
280.229
284.074
287.459
290.599
293.636
296.285
298.625
300.798
302.806
304.614
306.257
307.762
309.143
310.403
311.55
312.6
313.562
314.444
315.252
315.99
316.668
317.29
317.859
318.376
318.847
319.276
319.671
320.043
320.404
320.77
321.152
321.553
321.952
322.295
322.482
322.378
321.851
320.871
319.605
318.347
317.333
316.557
315.768
314.807
313.294
311.326
308.598
306.185
305.68
309.084
317.908
320.387
327.824
281.136
207.37
225.645
239.444
227.665
239.326
234.329
226.655
207.4
161.779
120.096
112.441
158.18
250.523
359.041
452.553
516.797
551.093
569.153
576.177
575.069
573.824
573.463
575.537
573.173
561.131
541.729
532.128
541.901
554.69
561.912
565.591
565.878
565.274
562.778
559.291
555.828
551.904
551.09
550.647
553.803
555.917
558.081
118.177
106.916
90.8163
78.7278
76.7084
84.4194
98.3426
115.08
132.369
148.986
164.415
178.533
191.38
203.057
213.673
223.346
232.147
240.168
247.474
254.146
260.252
265.824
270.911
275.532
279.746
283.632
287.126
290.314
293.309
295.928
298.367
300.59
302.595
304.431
306.092
307.615
309.01
310.283
311.442
312.503
313.476
314.366
315.182
315.928
316.612
317.241
317.814
318.337
318.812
319.245
319.644
320.017
320.379
320.745
321.127
321.526
321.925
322.269
322.464
322.374
321.866
320.904
319.649
318.394
317.373
316.593
315.808
314.863
313.378
311.445
308.728
306.266
305.632
308.85
317.657
320.159
327.964
282.14
207.807
225.24
239.488
227.661
239.205
234.487
227.079
208.357
162.897
120.521
111.693
156.206
247.804
356.47
450.639
515.654
550.493
568.867
576.109
575.089
573.834
573.434
575.54
573.369
561.478
542.013
532.093
541.644
554.488
561.809
565.555
565.883
565.305
562.839
559.358
555.897
551.946
551.096
550.617
553.752
555.873
558.056
127.669
121.013
109.561
98.8739
94.2213
96.9105
105.723
118.602
133.491
148.813
163.624
177.482
190.248
201.93
212.592
222.326
231.199
239.29
246.666
253.404
259.571
265.2
270.331
275.01
279.281
283.206
286.766
289.99
292.976
295.656
298.074
300.331
302.415
304.236
305.921
307.463
308.872
310.158
311.33
312.402
313.385
314.285
315.108
315.862
316.554
317.188
317.768
318.296
318.776
319.213
319.615
319.99
320.354
320.719
321.1
321.498
321.896
322.243
322.446
322.371
321.883
320.939
319.694
318.44
317.413
316.63
315.85
314.923
313.469
311.572
308.861
306.342
305.565
308.579
317.379
319.895
328.051
282.9
208.055
224.682
239.548
227.659
239.078
234.657
227.517
209.332
163.946
120.766
110.703
154.046
244.997
353.76
448.611
514.446
549.855
568.561
576.037
575.109
573.846
573.403
575.544
573.538
561.827
542.294
532.04
541.392
554.282
561.706
565.519
565.889
565.336
562.892
559.418
555.957
551.975
551.101
550.586
553.7
555.826
558.03
136.307
132.153
124.274
115.958
110.844
110.576
115.323
124.305
136.19
149.567
163.296
176.634
189.195
200.83
211.523
221.317
230.264
238.431
245.879
252.683
258.907
264.59
269.774
274.504
278.824
282.785
286.389
289.65
292.643
295.355
297.832
300.086
302.14
304.079
305.752
307.305
308.731
310.029
311.214
312.298
313.291
314.199
315.031
315.793
316.492
317.133
317.719
318.253
318.738
319.179
319.584
319.962
320.326
320.691
321.071
321.467
321.865
322.215
322.428
322.368
321.901
320.976
319.741
318.487
317.455
316.67
315.895
314.988
313.566
311.704
308.996
306.409
305.474
308.304
317.067
319.601
328.087
283.354
208.178
223.906
239.627
227.662
238.947
234.838
227.983
210.31
164.86
120.756
109.413
151.538
241.765
350.719
446.361
513.119
549.156
568.227
575.957
575.13
573.859
573.369
575.549
573.739
562.202
542.582
531.969
541.096
554.056
561.594
565.482
565.897
565.372
562.958
559.489
556.032
552.022
551.105
550.55
553.642
555.774
558
144.421
141.914
136.451
130.169
125.567
124.027
126.13
131.86
140.664
151.626
163.738
176.143
188.25
199.721
210.401
220.252
229.285
237.544
245.081
251.962
258.252
263.993
269.232
274.011
278.378
282.37
286.007
289.305
292.32
295.065
297.57
299.857
301.937
303.8
305.584
307.156
308.584
309.898
311.094
312.19
313.193
314.111
314.951
315.721
316.428
317.076
317.668
318.208
318.698
319.144
319.552
319.932
320.297
320.662
321.039
321.434
321.831
322.186
322.408
322.366
321.921
321.015
319.79
318.535
317.497
316.711
315.943
315.057
313.669
311.841
309.131
306.462
305.354
307.886
316.708
319.284
328.077
283.453
208.264
222.839
239.728
227.673
238.812
235.029
228.466
211.251
165.556
120.417
107.771
148.678
238.222
347.372
443.887
511.669
548.389
567.858
575.867
575.151
573.873
573.334
575.555
573.947
562.59
542.871
531.877
540.777
553.814
561.477
565.444
565.907
565.411
563.023
559.558
556.104
552.06
551.109
550.512
553.58
555.716
557.966
152.196
150.805
146.849
142.037
138.267
136.474
137.129
140.528
146.671
155.151
165.281
176.309
187.59
198.653
209.196
219.061
228.183
236.555
244.208
251.195
257.573
263.389
268.693
273.526
277.939
281.965
285.635
288.968
292.01
294.783
297.315
299.621
301.721
303.638
305.361
306.982
308.452
309.759
310.972
312.079
313.092
314.019
314.868
315.646
316.361
317.016
317.615
318.16
318.656
319.107
319.519
319.901
320.267
320.631
321.006
321.398
321.795
322.153
322.387
322.364
321.943
321.057
319.839
318.582
317.539
316.754
315.994
315.131
313.778
311.982
309.261
306.494
305.194
307.501
316.29
318.945
328.005
283.134
208.338
221.391
239.852
227.697
238.676
235.23
228.956
212.107
165.941
119.679
105.732
145.46
234.243
343.642
441.142
510.071
547.538
567.444
575.762
575.17
573.89
573.295
575.559
574.169
562.994
543.157
531.759
540.418
553.551
561.351
565.404
565.919
565.454
563.098
559.635
556.186
552.108
551.113
550.469
553.512
555.652
557.928
159.568
158.912
155.958
152.222
149.261
147.648
147.635
149.56
153.685
159.968
168.056
177.423
187.511
197.828
207.99
217.731
226.887
235.374
243.171
250.3
256.805
262.729
268.122
273.028
277.498
281.568
285.274
288.643
291.715
294.514
297.066
299.392
301.508
303.438
305.204
306.8
308.273
309.651
310.849
311.965
312.989
313.925
314.783
315.569
316.292
316.954
317.56
318.112
318.613
319.068
319.484
319.868
320.235
320.597
320.97
321.359
321.755
322.118
322.363
322.361
321.965
321.099
319.89
318.629
317.58
316.798
316.048
315.21
313.891
312.128
309.382
306.499
304.983
307.002
315.798
318.568
327.843
282.297
208.268
219.459
239.998
227.742
238.544
235.442
229.445
212.808
165.909
118.489
103.256
141.821
229.817
339.491
438.091
508.303
546.589
566.973
575.636
575.185
573.908
573.254
575.56
574.4
563.409
543.439
531.612
540.022
553.266
561.218
565.363
565.933
565.5
563.176
559.724
556.27
552.155
551.115
550.423
553.437
555.579
557.885
166.516
166.371
164.165
161.232
158.91
157.583
157.339
158.427
161.162
165.696
171.938
179.593
188.265
197.531
207.01
216.384
225.416
233.945
241.877
249.178
255.854
261.933
267.458
272.471
277.024
281.16
284.916
288.328
291.432
294.256
296.829
299.171
301.305
303.252
305.029
306.651
308.124
309.459
310.742
311.858
312.884
313.829
314.695
315.49
316.22
316.89
317.503
318.061
318.568
319.028
319.448
319.834
320.201
320.562
320.931
321.317
321.711
322.078
322.336
322.356
321.987
321.143
319.942
318.676
317.621
316.842
316.105
315.292
314.008
312.273
309.491
306.469
304.713
306.43
315.212
318.13
327.579
280.803
207.695
216.944
240.155
227.815
238.423
235.685
229.921
213.276
165.368
116.796
100.304
137.589
224.87
334.852
434.683
506.34
545.525
566.434
575.481
575.195
573.928
573.211
575.556
574.641
563.833
543.713
531.433
539.584
552.954
561.075
565.319
565.95
565.551
563.262
559.814
556.362
552.208
551.117
550.372
553.355
555.496
557.834
173.095
173.326
171.695
169.354
167.503
166.454
166.191
166.842
168.678
171.926
176.646
182.731
189.944
197.983
206.524
215.264
223.937
232.333
240.3
247.743
254.611
260.893
266.605
271.778
276.46
280.698
284.532
288.004
291.151
294.007
296.603
298.964
301.115
303.073
304.864
306.497
307.987
309.348
310.571
311.74
312.788
313.73
314.607
315.409
316.147
316.824
317.444
318.009
318.522
318.987
319.41
319.799
320.166
320.524
320.889
321.27
321.662
322.032
322.304
322.347
322.008
321.188
319.994
318.721
317.658
316.885
316.163
315.378
314.13
312.416
309.581
306.395
304.375
305.748
314.512
317.608
327.216
278.543
206.651
213.763
240.3
227.927
238.323
235.905
230.364
213.421
164.246
114.55
96.8226
133.374
219.342
329.657
430.866
504.15
544.328
565.81
575.289
575.194
573.949
573.163
575.545
574.887
564.263
543.978
531.219
539.096
552.615
560.922
565.273
565.969
565.606
563.354
559.915
556.463
552.264
551.118
550.316
553.265
555.402
557.776
179.354
179.851
178.653
176.759
175.27
174.463
174.258
174.693
175.972
178.322
181.872
186.627
192.484
199.261
206.724
214.618
222.697
230.738
238.556
246.015
253.018
259.504
265.443
270.836
275.71
280.105
284.062
287.628
290.844
293.75
296.38
298.767
300.936
302.911
304.711
306.352
307.851
309.22
310.474
311.608
312.667
313.65
314.516
315.327
316.073
316.758
317.384
317.956
318.475
318.945
319.372
319.763
320.129
320.484
320.843
321.218
321.607
321.98
322.265
322.334
322.027
321.233
320.047
318.766
317.694
316.927
316.221
315.467
314.254
312.553
309.646
306.268
303.953
304.922
313.662
316.973
326.736
275.503
204.369
209.9
240.393
228.082
238.254
236.202
230.754
213.13
162.496
111.701
92.7989
127.244
213.146
323.824
426.571
501.695
542.977
565.086
575.048
575.18
573.97
573.11
575.523
575.133
564.695
544.233
530.97
538.557
552.241
560.756
565.224
565.989
565.665
563.455
560.022
556.569
552.325
551.117
550.253
553.163
555.295
557.708
185.312
185.988
185.123
183.585
182.382
181.77
181.64
181.972
182.913
184.657
187.345
191.04
195.725
201.318
207.675
214.61
221.921
229.403
236.867
244.156
251.149
257.751
263.891
269.527
274.649
279.268
283.414
287.129
290.46
293.449
296.14
298.568
300.765
302.758
304.571
306.223
307.725
309.102
310.36
311.513
312.561
313.521
314.449
315.251
315.998
316.691
317.324
317.902
318.428
318.903
319.334
319.726
320.091
320.442
320.795
321.162
321.544
321.919
322.218
322.314
322.042
321.279
320.101
318.81
317.725
316.966
316.28
315.558
314.379
312.681
309.68
306.079
303.434
304
312.609
316.188
326.064
271.877
201.184
205.47
240.378
228.282
238.219
236.507
231.063
212.306
160.074
108.184
88.2311
121.482
206.209
317.259
421.717
498.929
541.449
564.243
574.744
575.147
573.987
573.05
575.487
575.373
565.125
544.476
530.686
537.964
551.831
560.576
565.171
566.011
565.728
563.563
560.138
556.686
552.391
551.115
550.183
553.05
555.17
557.63
190.992
191.785
191.183
189.932
188.956
188.495
188.436
188.724
189.458
190.794
192.863
195.745
199.473
204.028
209.34
215.296
221.747
228.526
235.462
242.397
249.199
255.76
261.988
267.808
273.172
278.057
282.459
286.399
289.91
293.039
295.832
298.334
300.581
302.606
304.439
306.102
307.617
308.999
310.258
311.415
312.474
313.441
314.317
315.169
315.931
316.621
317.263
317.848
318.38
318.861
319.295
319.689
320.052
320.398
320.742
321.099
321.474
321.848
322.16
322.284
322.053
321.324
320.158
318.855
317.765
317.002
316.338
315.65
314.505
312.797
309.677
305.817
302.799
302.52
311.272
315.199
325.084
268.136
197.487
200.781
240.179
228.518
238.222
236.891
231.254
210.847
156.954
103.923
83.0298
114.51
198.434
309.858
416.205
495.791
539.719
563.266
574.359
575.086
573.998
572.979
575.429
575.599
565.55
544.713
530.371
537.31
551.376
560.379
565.112
566.035
565.797
563.68
560.265
556.811
552.463
551.111
550.104
552.923
555.027
557.537
196.42
197.285
196.888
195.87
195.073
194.732
194.735
195.007
195.609
196.668
198.295
200.57
203.542
207.229
211.615
216.644
222.22
228.222
234.511
240.946
247.394
253.745
259.902
265.776
271.296
276.409
281.081
285.298
289.068
292.414
295.377
298.004
300.34
302.427
304.3
305.989
307.517
308.907
310.175
311.329
312.389
313.363
314.26
315.076
315.847
316.569
317.204
317.794
318.334
318.819
319.257
319.652
320.013
320.353
320.686
321.03
321.394
321.765
322.088
322.242
322.056
321.368
320.218
318.902
317.789
317.036
316.394
315.744
314.63
312.899
309.633
305.472
302.028
301.172
309.558
313.918
323.66
264.96
193.619
196.421
239.719
228.769
238.248
237.29
231.282
208.669
153.115
98.848
77.0853
106.721
189.707
301.503
409.917
492.213
537.754
562.134
573.871
574.991
573.996
572.893
575.343
575.801
565.967
544.945
530.025
536.595
550.874
560.163
565.047
566.059
565.87
563.806
560.402
556.946
552.542
551.104
550.013
552.779
554.861
557.43
201.614
202.518
202.28
201.451
200.8
200.555
200.609
200.876
201.392
202.258
203.567
205.391
207.778
210.765
214.366
218.563
223.309
228.525
234.11
239.948
245.923
251.92
257.85
263.624
269.163
274.397
279.271
283.747
287.801
291.43
294.647
297.479
299.97
302.167
304.116
305.856
307.416
308.823
310.099
311.26
312.324
313.288
314.187
315.016
315.775
316.477
317.152
317.747
318.285
318.777
319.22
319.616
319.975
320.307
320.628
320.956
321.304
321.668
322
322.185
322.048
321.411
320.286
318.957
317.823
317.07
316.45
315.838
314.757
312.985
309.544
305.034
301.092
299.507
307.361
312.211
321.68
262.914
190.412
193.139
238.942
228.996
238.281
237.691
231.09
205.695
148.523
92.9003
70.282
97.9018
179.887
292.067
402.718
488.108
535.513
560.826
573.251
574.851
573.976
572.786
575.22
575.968
566.371
545.18
529.654
535.815
550.319
559.924
564.973
566.085
565.948
563.944
560.551
557.093
552.627
551.094
549.909
552.615
554.67
557.303
206.591
207.507
207.393
206.72
206.19
206.02
206.114
206.38
206.837
207.565
208.643
210.129
212.069
214.502
217.455
220.938
224.935
229.404
234.279
239.476
244.899
250.448
256.028
261.563
266.976
272.195
277.154
281.798
286.085
289.99
293.497
296.61
299.345
301.734
303.821
305.655
307.279
308.727
310.026
311.199
312.265
313.238
314.131
314.955
315.722
316.431
317.076
317.691
318.254
318.742
319.185
319.583
319.938
320.262
320.568
320.876
321.204
321.555
321.893
322.108
322.027
321.45
320.361
319.024
317.864
317.107
316.509
315.937
314.886
313.057
309.411
304.492
299.966
297.468
304.582
309.914
318.996
262.35
188.128
191.36
237.828
229.153
238.216
238.141
230.542
201.895
143.148
86.0369
62.4759
87.8426
168.808
281.404
394.455
483.374
532.939
559.313
572.468
574.657
573.928
572.651
575.052
576.086
566.758
545.426
529.267
534.972
549.706
559.66
564.891
566.112
566.032
564.092
560.715
557.247
552.719
551.08
549.789
552.43
554.448
557.156
211.367
212.277
212.258
211.715
211.284
211.173
211.297
211.563
211.977
212.604
213.51
214.741
216.338
218.335
220.767
223.653
226.999
230.791
234.991
239.544
244.38
249.418
254.573
259.766
264.93
270.002
274.914
279.607
284.026
288.131
291.891
295.287
298.314
300.978
303.297
305.306
307.05
308.576
309.927
311.132
312.215
313.193
314.088
314.914
315.67
316.381
317.04
317.64
318.19
318.706
319.16
319.553
319.904
320.219
320.508
320.793
321.095
321.427
321.764
322.008
321.988
321.485
320.446
319.115
317.918
317.155
316.579
316.047
315.021
313.119
309.236
303.839
298.629
295.056
301.19
306.874
315.546
262.561
186.974
190.823
236.42
229.187
238.132
238.519
229.645
197.239
136.941
78.2288
53.5084
76.4453
156.279
269.352
384.955
477.876
529.942
557.557
571.488
574.401
573.846
572.481
574.827
576.145
567.124
545.697
528.88
534.073
549.032
559.367
564.797
566.139
566.122
564.254
560.892
557.422
552.818
551.063
549.651
552.22
554.193
556.982
215.955
216.845
216.899
216.463
216.113
216.049
216.196
216.462
216.843
217.393
218.166
219.203
220.534
222.191
224.205
226.602
229.398
232.595
236.18
240.12
244.371
248.871
253.553
258.343
263.175
267.993
272.741
277.36
281.795
285.995
289.92
293.537
296.826
299.774
302.381
304.655
306.617
308.301
309.753
311.021
312.145
313.148
314.054
314.879
315.64
316.346
316.998
317.608
318.167
318.664
319.122
319.532
319.88
320.18
320.45
320.708
320.978
321.282
321.611
321.88
321.927
321.512
320.545
319.229
318.011
317.228
316.669
316.179
315.176
313.182
309.027
303.073
297.06
292.23
297.146
302.972
311.359
262.927
186.469
190.909
234.82
229.025
237.832
238.779
228.342
191.807
129.903
69.478
43.218
63.5396
142.093
255.732
374.022
471.437
526.402
555.515
570.283
574.058
573.718
572.269
574.538
576.134
567.467
546.006
528.512
533.126
548.292
559.039
564.689
566.166
566.219
564.425
561.088
557.597
552.925
551.04
549.492
551.982
553.899
556.779
220.368
221.228
221.336
220.989
220.708
220.681
220.842
221.106
221.462
221.951
222.622
223.506
224.63
226.018
227.699
229.699
232.038
234.728
237.77
241.149
244.841
248.806
252.994
257.345
261.798
266.293
270.787
275.229
279.569
283.755
287.741
291.487
294.962
298.142
301.013
303.568
305.809
307.747
309.403
310.81
312.015
313.068
314.005
314.85
315.615
316.321
316.975
317.578
318.138
318.649
319.106
319.501
319.852
320.154
320.401
320.625
320.856
321.123
321.434
321.722
321.837
321.527
320.659
319.383
318.147
317.347
316.8
316.353
315.367
313.263
308.8
302.197
295.243
288.964
292.393
298.151
306.453
263.3
186.649
191.45
233.203
228.595
237.308
238.866
226.533
185.629
122.018
59.7984
31.4691
48.9884
126.04
240.343
361.437
463.84
522.175
553.141
568.835
573.593
573.534
572.009
574.175
576.045
567.788
546.374
528.195
532.15
547.484
558.672
564.564
566.19
566.323
564.615
561.301
557.808
553.04
551.014
549.309
551.712
553.561
556.541
224.616
225.44
225.587
225.314
225.089
225.091
225.263
225.523
225.856
226.297
226.886
227.65
228.609
229.785
231.199
232.877
234.841
237.105
239.679
242.561
245.741
249.196
252.893
256.788
260.833
264.972
269.156
273.345
277.5
281.575
285.522
289.299
292.868
296.199
299.268
302.058
304.559
306.769
308.694
310.344
311.739
312.913
313.912
314.79
315.581
316.301
316.959
317.565
318.131
318.628
319.096
319.501
319.842
320.121
320.355
320.55
320.735
320.954
321.233
321.529
321.711
321.523
320.785
319.586
318.351
317.533
317.002
316.597
315.622
313.39
308.582
301.234
293.197
285.264
287.005
292.4
300.903
263.715
188.293
193.657
231.942
227.888
236.498
238.722
224.222
178.93
113.395
49.2571
18.1646
32.7579
107.908
222.966
346.958
454.846
517.124
550.385
567.128
572.947
573.283
571.696
573.726
575.876
568.087
546.824
527.97
531.176
546.61
558.256
564.414
566.21
566.433
564.815
561.531
558.008
553.169
550.982
549.101
551.408
553.173
556.263
228.71
229.492
229.668
229.456
229.279
229.303
229.481
229.735
230.049
230.449
230.971
231.638
232.466
233.47
234.671
236.089
237.745
239.655
241.833
244.284
247.007
249.993
253.222
256.667
260.291
264.051
267.9
271.792
275.699
279.583
283.406
287.124
290.698
294.093
297.279
300.233
302.938
305.381
307.557
309.467
311.118
312.523
313.701
314.681
315.514
316.254
316.933
317.555
318.123
318.636
319.1
319.502
319.847
320.121
320.326
320.483
320.621
320.782
321.014
321.304
321.544
321.492
320.921
319.845
318.644
317.823
317.306
316.952
315.979
313.602
308.419
300.216
290.923
281.132
280.65
285.732
294.704
263.996
191.359
196.63
231.316
226.959
235.439
238.351
221.344
171.781
104.087
37.9153
3.28351
14.5526
87.5032
203.367
330.334
444.207
511.125
547.178
565.133
572.045
572.96
571.324
573.179
575.633
568.363
547.386
527.901
530.254
545.681
557.782
564.23
566.216
566.547
565.029
561.792
558.248
553.305
550.947
548.861
551.065
552.729
555.938
232.659
233.398
233.592
233.431
233.294
233.335
233.514
233.762
234.057
234.423
234.89
235.477
236.198
237.064
238.092
239.299
240.703
242.321
244.167
246.249
248.575
251.141
253.94
256.956
260.165
263.535
267.03
270.609
274.232
277.873
281.504
285.088
288.587
291.965
295.189
298.231
301.067
303.681
306.06
308.196
310.087
311.738
313.157
314.359
315.359
316.184
316.884
317.514
318.105
318.642
319.118
319.528
319.864
320.128
320.318
320.439
320.52
320.616
320.786
321.048
321.336
321.425
321.054
320.162
319.048
318.245
317.765
317.465
316.499
313.945
308.358
299.216
288.531
276.653
273.573
278.193
287.846
263.726
194.479
202.699
231.686
225.944
234.196
237.77
218.011
164.575
94.3799
25.9207
-13.117
-5.00555
64.6969
181.311
311.305
431.655
504.023
543.396
562.795
570.799
572.567
570.887
572.521
575.32
568.62
548.094
528.071
529.463
544.725
557.235
563.997
566.201
566.661
565.259
562.05
558.493
553.467
550.912
548.59
550.68
552.223
555.557
236.472
237.166
237.372
237.252
237.148
237.202
237.381
237.62
237.899
238.235
238.655
239.176
239.808
240.561
241.448
242.482
243.681
245.057
246.626
248.398
250.382
252.581
254.994
257.614
260.429
263.416
266.55
269.799
273.127
276.499
279.893
283.285
286.644
289.935
293.125
296.182
299.079
301.797
304.316
306.624
308.713
310.579
312.223
313.653
314.88
315.918
316.778
317.48
318.073
318.609
319.116
319.557
319.909
320.167
320.326
320.419
320.446
320.468
320.562
320.774
321.089
321.31
321.172
320.531
319.576
318.842
318.422
318.201
317.247
314.495
308.5
298.313
286.027
271.908
265.981
269.818
280.332
262.329
198.088
209.116
233.577
224.977
232.948
237.157
214.279
157.387
84.3876
13.3852
-30.8305
-26.0025
39.3502
156.586
289.618
416.897
495.588
538.865
560.043
569.15
572.094
570.382
571.747
574.916
568.861
548.98
528.588
528.904
543.794
556.61
563.695
566.146
566.766
565.471
562.375
558.769
553.637
550.875
548.297
550.25
551.648
555.114
240.157
240.805
241.018
240.933
240.856
240.92
241.096
241.326
241.588
241.898
242.278
242.743
243.302
243.961
244.731
245.624
246.652
247.83
249.169
250.681
252.374
254.256
256.33
258.595
261.045
263.669
266.449
269.363
272.384
275.479
278.618
281.781
284.949
288.094
291.187
294.196
297.091
299.847
302.444
304.866
307.099
309.135
310.968
312.599
314.033
315.278
316.349
317.256
318.01
318.613
319.104
319.534
319.922
320.212
320.371
320.427
320.399
320.347
320.358
320.501
320.811
321.155
321.249
320.931
320.22
319.628
319.322
319.218
318.295
315.341
308.899
297.655
283.709
267.235
258.175
260.623
272.049
259.305
204.169
217.01
238.713
224.226
231.883
236.702
210.456
150.775
74.5927
0.558307
-49.655
-48.6014
11.535
129.057
265.056
399.652
485.544
533.409
556.799
567.085
571.469
569.79
570.866
574.384
569.093
550.071
529.562
528.706
542.966
555.907
563.305
566.03
566.849
565.718
562.688
559.067
553.837
550.846
547.988
549.772
550.997
554.598
243.723
244.326
244.54
244.483
244.43
244.5
244.672
244.891
245.139
245.425
245.771
246.188
246.684
247.265
247.938
248.713
249.602
250.615
251.763
253.057
254.505
256.116
257.897
259.848
261.971
264.259
266.704
269.29
271.999
274.807
277.686
280.609
283.556
286.512
289.456
292.36
295.196
297.935
300.554
303.032
305.353
307.508
309.485
311.28
312.891
314.32
315.575
316.668
317.612
318.416
319.078
319.581
319.938
320.201
320.385
320.444
320.387
320.262
320.19
320.248
320.53
320.957
321.29
321.321
320.937
320.612
320.463
320.534
319.707
316.603
309.744
297.378
281.541
262.684
250.167
250.687
262.631
253.837
209.858
221.369
245.779
223.735
231.265
236.878
206.793
144.81
65.1774
-12.3447
-69.2802
-73
-18.4635
98.6772
237.467
379.679
473.635
526.912
552.975
564.624
570.548
569.09
569.909
573.662
569.308
551.367
531.08
529.001
542.329
555.156
562.805
565.83
566.884
565.916
563.034
559.387
554.087
550.832
547.663
549.245
550.266
554
247.175
247.735
247.947
247.914
247.879
247.954
248.121
248.33
248.563
248.828
249.143
249.519
249.962
250.476
251.068
251.745
252.517
253.393
254.382
255.494
256.737
258.119
259.648
261.327
263.16
265.147
267.282
269.558
271.963
274.481
277.091
279.769
282.491
285.236
287.994
290.746
293.471
296.141
298.73
301.214
303.575
305.798
307.87
309.785
311.535
313.119
314.536
315.792
316.895
317.857
318.688
319.386
319.925
320.268
320.414
320.406
320.345
320.219
320.086
320.056
320.249
320.732
321.29
321.692
321.714
321.73
321.917
322.203
321.531
318.314
311.095
297.671
280.121
258.813
242.173
240.158
251.935
245.7
211.625
219.002
251.916
222.447
231.403
238.261
203.873
140.245
56.8236
-24.9284
-89.1103
-98.364
-50.3986
65.554
206.797
356.761
459.625
519.267
548.408
561.747
569.13
568.301
568.902
572.491
569.466
552.842
533.25
529.843
541.974
554.403
562.188
565.522
566.854
566.077
563.387
559.737
554.317
550.817
547.324
548.671
549.449
553.31
250.523
251.04
251.248
251.234
251.215
251.293
251.453
251.652
251.87
252.116
252.404
252.744
253.142
253.599
254.122
254.717
255.392
256.153
257.01
257.969
259.04
260.229
261.543
262.989
264.57
266.289
268.145
270.136
272.254
274.49
276.829
279.254
281.745
284.28
286.837
289.408
291.98
294.533
297.044
299.488
301.844
304.091
306.215
308.205
310.052
311.752
313.3
314.697
315.943
317.043
318.004
318.831
319.523
320.062
320.404
320.511
320.349
320.086
319.935
319.922
320.117
320.514
321.172
321.949
322.469
322.933
323.395
324.073
323.746
320.594
313.269
298.732
279.211
255.629
235.138
229.711
239.957
235.094
208.217
217.575
259.13
225.218
232.2
241.92
202.062
137.261
49.9122
-36.6884
-108.341
-124.088
-83.6195
29.9982
173.136
330.732
443.24
509.997
543.031
558.385
567.037
567.45
567.844
570.971
569.509
554.444
536.008
531.318
541.969
553.712
561.462
565.104
566.718
566.171
563.731
560.1
554.611
550.885
546.98
548.054
548.546
552.518
253.772
254.249
254.45
254.452
254.447
254.526
254.679
254.867
255.072
255.301
255.565
255.873
256.231
256.64
257.104
257.63
258.222
258.887
259.633
260.465
261.391
262.417
263.55
264.795
266.159
267.645
269.254
270.988
272.842
274.812
276.889
279.062
281.315
283.632
285.991
288.375
290.771
293.172
295.562
297.92
300.225
302.455
304.591
306.618
308.524
310.302
311.945
313.45
314.815
316.038
317.12
318.061
318.859
319.506
319.988
320.27
320.352
320.251
319.945
319.672
319.829
320.401
321.292
322.185
322.981
323.931
325.119
326.306
326.303
323.248
315.961
300.865
279.852
254.046
229.013
218.798
227.011
222.234
199.523
215.637
260.669
234.423
234.266
248.986
202.737
136.828
45.3183
-47.0476
-126.364