/*--------------------------------*- C++ -*----------------------------------*\
| =========                 |                                                 |
| \\      /  F ield         | OpenFOAM: The Open Source CFD Toolbox           |
|  \\    /   O peration     | Version:  2412                                  |
|   \\  /    A nd           | Website:  www.openfoam.com                      |
|    \\/     M anipulation  |                                                 |
\*---------------------------------------------------------------------------*/
FoamFile
{
    version     2.0;
    format      ascii;
    arch        "LSB;label=32;scalar=64";
    class       volVectorField;
    location    "0.32";
    object      ddtCorrDdt0(U);
}
// * * * * * * * * * * * * * * * * * * * * * * * * * * * * * * * * * * * * * //

dimensions      [0 1 -2 0 0 0 0];

internalField   nonuniform List<vector> 
12600
(
(-7.99492 0 4.15743)
(-2.80181 9.30939e-19 1.14455)
(-2.05502 4.03171e-19 0.924402)
(-1.27089 0 0.916259)
(-1.04266 -3.60386e-20 0.768879)
(-1.04706 0 0.633103)
(-1.05616 1.8955e-19 0.539026)
(-0.978953 0 0.504746)
(-0.821448 0 0.515202)
(-0.679381 0 0.514333)
(-0.715233 0 0.41451)
(-0.893616 7.8687e-19 0.297875)
(-1.02906 2.43419e-21 0.215962)
(-0.939921 0 0.22677)
(-0.645829 3.45612e-19 0.322417)
(0.0283759 0 0.573367)
(0.0761132 -6.94829e-22 0.388585)
(-0.548588 0 0.0463405)
(-0.891715 8.80013e-19 -0.110001)
(-0.706949 0 -0.047021)
(-0.0937637 0 0.194895)
(0.497822 0 0.424292)
(0.629081 -9.46209e-18 0.415959)
(0.314337 4.17074e-18 0.143482)
(-0.66768 1.38405e-18 -0.616294)
(-1.33962 6.46921e-18 -0.700374)
(-1.21943 0 -0.0752137)
(1.28603 0 1.50582)
(1.91061 0 0.940799)
(6.10457 1.57278e-17 2.48999)
(0.246117 1.80071e-16 -3.64253)
(-6.60515 0 -4.99066)
(-3.61161 0 -2.06374)
(-1.11298 2.7851e-18 -0.441311)
(-0.386539 1.65629e-18 -0.0584077)
(-0.201001 0 0.0468272)
(-0.0462519 0 0.126402)
(-0.109464 4.33045e-18 0.0979563)
(-0.333754 0 0.0220418)
(-0.455217 -4.5315e-19 0.0201984)
(-0.38466 -2.87733e-18 0.106569)
(-0.315751 -3.56993e-18 0.185488)
(-0.408091 0 0.189721)
(-0.642979 1.35382e-18 0.133526)
(-0.784991 4.6932e-20 0.106297)
(-0.710261 5.6027e-18 0.146519)
(-0.473798 -9.38625e-18 0.214792)
(-0.237674 0 0.24913)
(-0.169326 2.68335e-18 0.187672)
(-0.167426 7.9222e-19 0.0731631)
(-0.168873 0 -0.0574338)
(0.116755 2.24214e-19 -0.0158898)
(0.515502 5.2089e-18 0.08204)
(0.736182 0 0.10672)
(0.646831 1.13311e-17 0.160344)
(0.261869 0 0.246088)
(-0.00152266 0 0.393917)
(-0.211657 -1.59004e-19 0.479651)
(-0.318135 5.56933e-20 0.437441)
(-0.305505 -2.91781e-18 0.650471)
(-1.05749 -2.52463e-17 0.0328493)
(-1.03647 -4.44874e-17 -0.14714)
(-0.643664 0 -0.54636)
(1.63583 -7.99709e-17 -1.34032)
(2.93689 -1.82795e-16 -1.84622)
(5.23749 -1.612e-16 -2.78901)
(1.10644 -3.19944e-16 -0.692065)
(0.150624 0 -0.850567)
(-12.5102 0 8.1363)
(-36.4309 0 20.4259)
(-15.0721 0 8.34587)
(28.4916 0 -16.0232)
(9.10947 -9.18231e-16 -4.92987)
(-2.47279 1.44679e-16 1.13163)
(-10.0805 0 5.3271)
(-11.4053 0 5.38882)
(0.475239 1.74215e-16 -2.1678)
(33.5405 -6.86993e-19 -19.3591)
(63.39 1.14266e-16 -35.4353)
(63.3653 0 -31.9392)
(43.6048 0 -22.6231)
(10.9736 0 -5.8444)
(-26.761 3.25043e-19 14.2727)
(-42.3643 0 22.5562)
(-37.394 0 20.0115)
(-25.0049 1.09425e-15 13.7919)
(-15.909 -8.04512e-19 8.78194)
(-10.0592 0 5.40419)
(-2.93443 0 1.61734)
(-0.676325 -2.54491e-16 -0.111317)
(0.357072 1.86512e-16 -0.20409)
(-2.90405 -3.50871e-16 1.68816)
(-5.29679 1.44173e-17 3.08246)
(-0.397451 1.1394e-18 0.239112)
(10.7169 7.66223e-19 -6.00947)
(16.1924 1.36349e-16 -8.86153)
(8.68226 0 -4.54005)
(-2.68425 0 1.43153)
(-6.32697 0 3.36861)
(-4.7442 -7.06239e-16 2.35994)
(-2.77196 -6.17721e-17 1.39287)
(-1.3417 1.13656e-17 0.755301)
(-0.287039 2.1892e-16 0.259023)
(0.680599 0 -0.244515)
(1.26117 0 -0.700742)
(1.84394 0 -1.02249)
(1.53312 5.16002e-17 -0.842358)
(0.962386 0 -0.546948)
(-0.463364 -1.06068e-16 0.366981)
(-1.76766 0 1.10186)
(-2.76881 0 1.59461)
(-3.40512 3.27919e-17 1.9211)
(-3.11537 0 1.7772)
(-2.87037 0 1.6099)
(-2.25497 0 1.26184)
(-1.84022 -2.05884e-17 0.976842)
(-1.33451 0 0.735309)
(-1.15276 -4.20977e-16 0.607097)
(-0.856712 0 0.49571)
(-0.912713 9.1403e-20 0.631623)
(-9.0433 -1.33022e-19 6.69045)
(-7.54076 -6.21201e-19 2.98169)
(-6.61076 -2.05857e-19 2.68158)
(-5.32042 0 2.79499)
(-4.48621 5.17566e-20 2.45162)
(-4.01884 -1.37943e-19 2.08479)
(-3.6623 -1.97731e-19 1.84787)
(-3.27814 2.82952e-19 1.72156)
(-2.87489 0 1.6488)
(-2.57229 0 1.55926)
(-2.48133 0 1.36063)
(-2.51029 0 1.13346)
(-2.46182 0 0.962392)
(-2.15744 0 0.930565)
(-1.60513 -2.60781e-19 1.02353)
(-0.870187 0 1.36335)
(-1.02606 -1.50617e-18 0.972397)
(-1.58211 0 0.414923)
(-1.74908 -2.25403e-18 0.206225)
(-1.36219 3.50763e-18 0.253116)
(-0.52471 0 0.580684)
(0.160801 -3.39867e-18 0.922892)
(0.245088 4.88674e-18 0.892792)
(-0.355563 -1.6448e-18 0.325475)
(-1.57481 -2.53462e-18 -1.07269)
(-1.85101 0 -1.17196)
(-0.818675 1.65962e-18 0.280157)
(2.33167 0 3.39139)
(2.44537 0 1.85277)
(5.66975 0 3.62348)
(-5.88505 -8.56595e-17 -11.1542)
(-9.1172 0 -9.38542)
(-3.81845 0 -3.53932)
(-1.08196 0 -0.620942)
(-0.496036 0 0.0215685)
(-0.349151 0 0.163442)
(-0.213872 0 0.256613)
(-0.316249 -4.45479e-18 0.221608)
(-0.562642 0 0.135638)
(-0.674109 -5.3072e-18 0.151627)
(-0.595202 6.2272e-18 0.275367)
(-0.549566 3.36689e-18 0.381742)
(-0.684 0 0.385096)
(-0.939413 0 0.3145)
(-1.0576 8.64639e-20 0.276927)
(-0.928916 -5.72014e-18 0.322092)
(-0.629131 9.59924e-18 0.393715)
(-0.338382 0 0.4213)
(-0.237709 -2.21897e-18 0.32801)
(-0.222796 0 0.148553)
(-0.237611 0 -0.0986583)
(0.0996254 -2.16436e-18 -0.0098203)
(0.488665 0 0.187945)
(0.560373 0 0.297868)
(0.185 -1.1449e-17 0.52135)
(-0.67563 0 0.875187)
(-1.60311 0 1.37438)
(-2.47382 -2.87245e-19 1.82884)
(-2.98824 -4.06922e-17 1.93688)
(-2.86533 -8.09425e-19 2.07086)
(-3.07458 0 0.96651)
(-1.972 4.46553e-17 0.107576)
(0.12187 -1.93747e-16 -1.27108)
(5.61518 0 -4.00397)
(9.62792 3.67222e-16 -5.88833)
(14.8722 -2.57173e-18 -8.49847)
(3.60739 0 -1.84122)
(1.16779 5.313e-16 -0.817921)
(-43.273 0 27.7699)
(-108.48 0 63.4778)
(-51.6148 0 25.6296)
(86.399 0 -51.1211)
(29.2555 1.81438e-15 -15.0772)
(-4.60867 -1.41105e-16 3.33997)
(-28.0354 0 16.3302)
(-29.3891 0 15.3678)
(16.6851 1.63985e-16 -13.3865)
(116.002 -1.03848e-18 -69.6213)
(197.2 2.30237e-18 -114.658)
(178.142 0 -96.1483)
(112.803 0 -61.8177)
(20.1075 0 -7.93087)
(-85.414 -6.07731e-19 50.7791)
(-120.815 -3.16597e-16 69.1623)
(-106.162 -6.96078e-16 59.8338)
(-74.4271 -1.05728e-15 41.9221)
(-47.298 -9.96181e-19 26.6758)
(-30.1444 -3.15558e-16 16.539)
(-9.01421 0 4.83685)
(-0.125909 2.44603e-16 -0.56881)
(1.00284 0 -0.49251)
(-8.98979 3.36422e-16 5.4778)
(-15.1113 0 8.90105)
(2.14816 7.97563e-18 -1.94419)
(35.3361 -1.13189e-19 -20.7593)
(47.6916 0 -27.2721)
(22.0486 0 -12.0754)
(-9.98283 2.57414e-16 6.1633)
(-18.8554 -3.00168e-16 10.6812)
(-13.6876 6.70462e-16 7.42349)
(-8.21255 5.86666e-17 4.43701)
(-4.27888 -1.07845e-17 2.37816)
(-1.23763 0 0.75047)
(1.76849 -7.32242e-17 -0.93997)
(3.68801 0 -2.16509)
(5.1335 0 -2.97822)
(3.71404 -5.07669e-17 -2.14521)
(1.6831 0 -0.692009)
(-2.86996 1.03043e-18 1.82358)
(-6.67826 -2.85714e-17 3.97067)
(-9.14331 0 5.35855)
(-10.7624 0 6.20552)
(-9.75152 0 5.63841)
(-8.77193 7.70038e-17 5.03217)
(-7.05523 3.42843e-16 4.02712)
(-5.57184 1.93546e-17 3.12598)
(-4.35611 0 2.45821)
(-3.75199 3.95403e-16 2.09734)
(-3.06074 0 1.75225)
(-3.70327 -1.55279e-15 2.23914)
(-8.98838 1.68668e-19 6.32677)
(-9.25994 -4.19604e-21 3.78395)
(-9.67677 -2.32664e-19 3.67605)
(-9.33791 0 4.08258)
(-8.51191 1.5109e-21 3.90202)
(-7.66662 9.21497e-20 3.54)
(-6.88476 0 3.29423)
(-6.142 -2.68519e-19 3.09507)
(-5.4747 0 2.86891)
(-4.95803 -5.76781e-19 2.62019)
(-4.63141 0 2.3678)
(-4.42176 0 2.118)
(-4.13165 0 1.92511)
(-3.63126 0 1.81961)
(-2.91629 1.61367e-19 1.78327)
(-2.31063 0 1.79516)
(-2.44351 0 1.42399)
(-2.63325 0 1.09572)
(-2.58428 1.27008e-18 0.915483)
(-2.07189 -4.21977e-20 0.915013)
(-1.20398 0 1.00519)
(-0.609489 -4.24412e-19 1.07415)
(-0.619086 0 0.930729)
(-1.2822 -7.06892e-19 0.424156)
(-1.93317 0 -0.300642)
(-1.65587 0 -0.31231)
(-0.337896 -1.57573e-18 0.781766)
(1.89001 0 3.0454)
(1.53532 0 1.22477)
(1.18004 -1.10287e-17 -0.0270962)
(-10.3817 0 -16.0238)
(-6.78856 0 -7.28037)
(-2.36362 0 -2.23914)
(-0.708293 0 -0.170406)
(-0.529523 -6.16606e-19 0.207564)
(-0.464615 0 0.260449)
(-0.363708 0 0.28297)
(-0.452144 5.0993e-18 0.265643)
(-0.655627 0 0.24323)
(-0.750932 4.11448e-18 0.27442)
(-0.702916 5.90398e-20 0.344764)
(-0.698498 -3.18756e-18 0.395111)
(-0.841017 0 0.387796)
(-1.05796 0 0.351074)
(-1.12837 -1.27447e-19 0.316596)
(-0.969647 0 0.308517)
(-0.64948 -9.08067e-18 0.29555)
(-0.326097 0 0.265846)
(-0.162177 8.83942e-20 0.202506)
(-0.0872139 0 0.095251)
(-0.0504882 0 -0.0661011)
(0.248837 0 0.0210512)
(0.51104 -4.8545e-18 0.228499)
(0.403051 0 0.457205)
(-0.274658 0 0.873832)
(-1.59563 0 1.53352)
(-3.14775 0 2.40421)
(-4.6318 4.71206e-17 3.29472)
(-5.51939 0 3.70522)
(-5.51675 -2.11277e-18 3.37201)
(-4.83173 0 2.28701)
(-2.66707 -2.11197e-17 0.587746)
(1.20582 1.82674e-16 -1.94562)
(9.8009 0 -6.59535)
(16.0858 -3.51053e-16 -9.84439)
(23.3895 7.8574e-17 -12.9515)
(4.44378 0 -1.81021)
(0.33402 -5.00357e-16 2.188)
(-73.2109 0 49.4007)
(-166.516 0 97.3097)
(-98.8873 0 43.7939)
(135.146 0 -82.4138)
(50.432 3.50179e-18 -23.1929)
(-4.34514 1.32697e-16 5.07474)
(-41.8372 0 24.9668)
(-42.2115 0 20.5298)
(42.77 -2.44011e-18 -34.8383)
(205.707 9.87875e-16 -128.962)
(324.137 -5.52439e-17 -189.036)
(272.727 0 -143.473)
(159.625 0 -81.2556)
(13.4706 0 0.0693674)
(-143.108 2.79249e-15 90.3113)
(-186.525 -2.23238e-18 106.986)
(-163.738 6.52985e-16 90.2405)
(-118.055 0 64.5018)
(-75.1316 4.56175e-16 40.9409)
(-48.3864 2.95837e-16 25.4938)
(-14.8311 0 7.21319)
(0.899885 0 -1.45953)
(1.5064 -1.6707e-16 -0.48817)
(-14.5282 0 9.09851)
(-22.4667 -1.39373e-17 12.5855)
(7.94509 -1.4257e-18 -7.32664)
(60.3691 9.41518e-19 -36.6404)
(75.4835 -1.22693e-16 -42.5405)
(31.3568 0 -15.3597)
(-17.8916 -2.40902e-16 12.4046)
(-30.2497 2.80869e-16 17.2283)
(-21.696 -6.26764e-16 11.7307)
(-13.078 0 7.02382)
(-6.83697 -9.96635e-18 3.70395)
(-1.98088 0 1.03063)
(2.78636 6.84704e-17 -1.71469)
(5.68808 -2.49969e-17 -3.35655)
(7.53447 0 -4.30038)
(4.68534 4.74544e-17 -2.51056)
(0.744706 0 -0.263067)
(-6.41777 1.84927e-16 4.17491)
(-12.4063 2.66986e-17 7.4032)
(-15.8701 0 9.32423)
(-18.1057 0 10.3918)
(-16.3223 0 9.31034)
(-14.4799 -1.70591e-20 8.18547)
(-11.8637 -3.20242e-16 6.68386)
(-9.33627 -1.697e-17 5.21029)
(-7.57392 0 4.26378)
(-6.65837 3.70262e-16 3.75264)
(-5.56807 0 3.20223)
(-6.83064 1.72637e-19 4.0782)
(-8.74436 -4.02416e-20 6.18394)
(-9.21848 9.74122e-20 4.57236)
(-10.5539 2.83392e-20 4.44695)
(-11.5139 5.03284e-20 4.90691)
(-11.5791 -8.00123e-20 4.90549)
(-11.0685 -2.35715e-20 4.72548)
(-10.2537 0 4.65416)
(-9.33492 0 4.5195)
(-8.47807 0 4.22961)
(-7.77633 5.46295e-19 3.8621)
(-7.249 0 3.50015)
(-6.80742 0 3.18309)
(-6.27681 0 2.94243)
(-5.56387 0 2.77709)
(-4.70146 0 2.65834)
(-4.13049 1.34726e-18 2.42359)
(-4.08481 -1.34735e-18 2.08625)
(-3.99576 0 1.87392)
(-3.78284 0 1.6244)
(-3.08074 -3.11299e-18 1.6268)
(-2.20061 2.97367e-20 1.53123)
(-1.66317 3.45638e-18 1.34964)
(-1.68289 -4.23535e-18 1.05709)
(-2.1124 6.69681e-19 0.716623)
(-2.17237 -4.98458e-18 0.709661)
(-1.62126 2.46698e-18 0.84598)
(-0.540748 0 1.03881)
(0.195227 6.76592e-18 1.10557)
(-0.344094 0 -0.0858993)
(-3.43698 1.04365e-17 -3.36592)
(-9.91929 0 -13.8156)
(-3.40022 0 -4.08241)
(-1.19728 0 -0.835085)
(-0.557206 4.99165e-18 0.197916)
(-0.650747 5.83261e-19 0.322813)
(-0.595713 0 0.339072)
(-0.479743 0 0.349676)
(-0.557055 -4.82204e-18 0.323571)
(-0.74472 0 0.29778)
(-0.825496 -2.83e-19 0.322584)
(-0.77094 -2.98731e-18 0.383605)
(-0.767958 0 0.423296)
(-0.905796 0 0.403979)
(-1.1026 0 0.351275)
(-1.13728 0 0.290534)
(-0.937215 -5.60477e-18 0.247255)
(-0.573909 0 0.194688)
(-0.21073 6.14618e-18 0.130212)
(-0.0109976 1.89733e-18 0.062642)
(0.0955772 0 -0.00723648)
(0.18414 0 -0.0420567)
(0.420934 0 0.0475577)
(0.556626 4.58001e-18 0.278249)
(0.28339 1.79167e-18 0.642302)
(-0.672201 1.04144e-17 1.24452)
(-2.39979 0 2.19231)
(-4.50399 2.28513e-17 3.40198)
(-6.57692 -4.46701e-17 4.62664)
(-7.88081 0 5.22175)
(-7.8993 1.18533e-17 4.59293)
(-6.50176 0 3.1165)
(-3.17988 2.03348e-17 0.607356)
(2.50584 -1.7033e-16 -3.26897)
(14.075 0 -9.69677)
(22.2477 1.6627e-16 -13.9936)
(30.6115 -7.79792e-17 -16.4338)
(3.87611 0 -0.538233)
(-2.33916 0 7.12398)
(-101.465 0 72.379)
(-201.386 1.66679e-16 119.446)
(-163.824 -2.39749e-16 68.997)
(170.816 0 -109.726)
(72.6471 -8.07824e-16 -30.2287)
(-1.66594 -1.28179e-16 6.72203)
(-50.7529 0 31.5108)
(-48.2148 0 20.6212)
(79.6073 -1.424e-16 -64.5882)
(301.216 5.25911e-20 -194.226)
(439.707 0 -257.595)
(340.802 0 -176.814)
(181.156 0 -85.9716)
(-2.82055 0 23.166)
(-197.597 -1.12513e-18 128.271)
(-237.333 2.80634e-16 137.264)
(-208.866 0 114.197)
(-154.908 0 83.1917)
(-99.3382 0 52.8959)
(-64.6353 2.7553e-16 32.9554)
(-20.4258 0 9.03558)
(2.12472 2.14195e-16 -2.64196)
(1.97311 1.56453e-16 -0.326273)
(-19.0491 2.94379e-16 12.3907)
(-26.7649 1.30472e-17 14.4889)
(17.2043 -2.59329e-18 -14.4167)
(85.0263 -8.81363e-19 -52.6577)
(98.6672 1.14808e-16 -55.2362)
(36.4331 0 -15.9656)
(-26.409 0 18.6586)
(-40.2469 2.62997e-16 23.0778)
(-28.7021 2.93057e-16 15.3853)
(-17.3474 -5.20516e-17 9.18616)
(-9.04189 6.14256e-20 4.73888)
(-2.58919 0 1.1824)
(3.66198 0 -2.31003)
(7.02829 2.33647e-17 -4.23413)
(8.79715 0 -5.04048)
(4.20589 -4.49985e-17 -2.18553)
(-1.34313 0 1.46951)
(-11.0589 -5.79461e-19 7.05813)
(-18.7745 0 11.2216)
(-22.8169 -1.05441e-16 13.4312)
(-25.3001 2.76498e-17 14.5291)
(-22.7475 -2.89271e-18 12.9477)
(-19.9654 -5.02926e-20 11.2591)
(-16.6854 0 9.36148)
(-13.1772 1.58479e-17 7.34344)
(-11.0261 3.39069e-17 6.19312)
(-9.90773 -3.45738e-16 5.5836)
(-8.42351 0 4.84119)
(-10.2852 2.89453e-19 6.09412)
(-8.58117 0 6.11937)
(-8.77544 6.06183e-20 5.19856)
(-10.1219 0 5.09446)
(-11.635 -4.75542e-20 5.45544)
(-12.6112 7.42446e-20 5.43038)
(-12.9575 5.68654e-20 5.38855)
(-12.7461 0 5.60041)
(-12.1682 0 5.70408)
(-11.4633 2.98629e-19 5.49747)
(-10.7834 4.22074e-19 5.10872)
(-10.1709 -3.29723e-19 4.69877)
(-9.56428 -1.18035e-19 4.34025)
(-8.83688 3.28284e-19 4.05649)
(-7.94123 0 3.83211)
(-6.96387 0 3.62777)
(-6.31127 -2.56938e-18 3.2773)
(-6.05377 2.5687e-20 2.95989)
(-5.77031 0 2.7039)
(-5.31839 -1.06806e-18 2.46456)
(-4.49269 -2.48228e-18 2.38317)
(-3.57496 -2.8103e-20 2.14347)
(-2.97951 0 1.83823)
(-2.89018 4.00368e-18 1.47108)
(-3.03383 -6.98356e-19 1.24145)
(-2.80338 4.71145e-18 1.35081)
(-2.12129 -8.76729e-19 1.58106)
(-1.42663 0 1.33566)
(-1.44496 -4.84913e-18 0.0750295)
(-2.17775 0 -1.04845)
(-5.59258 2.84643e-17 -3.64847)
(-5.30919 0 -5.23782)
(-0.795205 0 -1.18924)
(-0.580507 0 0.237948)
(-0.630958 -4.71465e-18 0.489214)
(-0.845255 0 0.434487)
(-0.762271 0 0.420745)
(-0.616993 0 0.418874)
(-0.674883 0 0.375023)
(-0.837364 5.37999e-18 0.33444)
(-0.889297 -2.56407e-18 0.349483)
(-0.813336 0 0.401306)
(-0.799763 2.52973e-18 0.427171)
(-0.924708 0 0.387544)
(-1.09633 0 0.308132)
(-1.09086 0 0.217789)
(-0.846821 -5.12183e-20 0.142441)
(-0.441525 0 0.0567238)
(-0.0437747 -5.79522e-18 -0.0373878)
(0.180578 0 -0.113556)
(0.304761 0 -0.15808)
(0.406438 -2.32248e-18 -0.108556)
(0.588558 0 0.0264071)
(0.615721 0 0.308293)
(0.197833 -1.1099e-19 0.809209)
(-0.985948 -9.80913e-18 1.604)
(-3.04675 0 2.82748)
(-5.61842 -5.22232e-19 4.33749)
(-8.22224 4.21149e-17 5.81892)
(-9.93678 0 6.52221)
(-9.93218 -6.1515e-18 5.68426)
(-7.87721 0 3.66721)
(-3.37033 -1.91298e-17 0.27494)
(4.16072 1.60209e-16 -5.05904)
(18.4795 0 -13.141)
(28.0754 -1.59397e-16 -18.0904)
(36.4479 -1.45897e-18 -18.8596)
(2.21026 0 2.13948)
(-6.16401 0 14.1113)
(-127.218 0 95.7636)
(-206.5 -3.14306e-16 125.883)
(-254.003 4.45409e-18 104.593)
(190.526 0 -131.845)
(95.6039 7.59407e-16 -36.1815)
(3.20793 2.44229e-16 8.41516)
(-54.8439 0 35.6483)
(-47.0667 0 14.3662)
(125.731 0 -104.178)
(399.416 -8.87235e-19 -263.882)
(540.418 0 -315.789)
(380.916 0 -192.175)
(182.938 0 -74.3904)
(-26.3423 0 55.4388)
(-245.828 -1.22655e-15 163.383)
(-274.552 2.63224e-16 158.352)
(-243.387 0 130.797)
(-185.564 0 97.1937)
(-120.723 0 62.2847)
(-79.4005 -1.31054e-18 38.788)
(-26.0542 0 10.3115)
(3.24572 -2.00517e-16 -3.99177)
(2.55501 0 -0.0584971)
(-22.2271 -2.75501e-16 15.0315)
(-28.1214 0 14.2499)
(28.5318 1.38881e-18 -24.0943)
(108.421 0 -68.2264)
(117.406 0 -64.5056)
(38.2921 0 -13.5896)
(-34.6148 0 25.2822)
(-48.9027 -2.45915e-16 28.0245)
(-34.8094 0 18.3123)
(-21.1123 4.86603e-17 10.8922)
(-10.979 8.65333e-18 5.50637)
(-3.19707 0 1.24538)
(4.10359 0 -2.85601)
(7.5802 0 -4.66398)
(8.90222 0 -5.00831)
(2.55144 -7.24421e-20 -0.870907)
(-4.64869 0 4.05976)
(-16.5357 -1.59189e-16 10.5809)
(-25.5494 0 15.355)
(-29.8919 1.96144e-16 17.6269)
(-32.3572 -2.58243e-17 18.5242)
(-29.1293 2.7015e-18 16.4729)
(-25.379 -6.26794e-17 14.1952)
(-21.6259 0 12.0361)
(-17.2061 0 9.52531)
(-14.7622 -6.40213e-17 8.26304)
(-13.5108 -3.23601e-16 7.60935)
(-11.6513 5.264e-16 6.70138)
(-14.0116 6.31466e-16 8.29046)
(-8.5826 0 5.90134)
(-8.58656 -3.28785e-19 5.45955)
(-9.3834 0 5.56712)
(-10.6638 0 5.85599)
(-11.9361 0 5.70908)
(-12.9215 0 5.6692)
(-13.517 0 6.07329)
(-13.7273 -5.90737e-20 6.45301)
(-13.6565 -2.81754e-19 6.44679)
(-13.4034 -7.54667e-19 6.15935)
(-13.0045 5.68928e-19 5.80581)
(-12.4385 1.11371e-19 5.48539)
(-11.6522 -3.09878e-19 5.21435)
(-10.6671 0 4.96762)
(-9.62451 0 4.70886)
(-8.86379 2.42775e-18 4.31644)
(-8.41777 2.31278e-18 3.98124)
(-7.9452 0 3.69569)
(-7.28966 1.00818e-18 3.41327)
(-6.3427 2.34306e-18 3.22541)
(-5.33835 0 2.8929)
(-4.63843 -2.39653e-18 2.49487)
(-4.37133 0 2.07381)
(-4.2258 -6.32411e-19 1.89484)
(-3.80715 -1.65668e-18 1.94513)
(-3.11841 -5.7689e-19 2.08629)
(-2.63041 0 1.67977)
(-2.60463 -1.45762e-18 0.580277)
(-3.41939 -1.38534e-17 -0.803659)
(-5.09069 -4.90885e-17 -1.84702)
(-1.66992 -3.5983e-17 1.44163)
(-0.227451 0 0.736297)
(-0.587917 9.26339e-18 1.00634)
(-0.886418 0 0.805946)
(-1.12579 0 0.561049)
(-0.977331 0 0.517394)
(-0.788694 0 0.494257)
(-0.813726 0 0.426292)
(-0.934055 -3.16284e-19 0.366807)
(-0.941508 1.06081e-18 0.366224)
(-0.831801 0 0.401316)
(-0.797128 -4.68066e-18 0.405657)
(-0.899527 0 0.339142)
(-1.0372 0 0.228723)
(-0.985681 0 0.107716)
(-0.695324 5.02747e-18 0.00252372)
(-0.249838 0 -0.112092)
(0.179588 0 -0.228711)
(0.423742 0 -0.309272)
(0.55644 0 -0.333507)
(0.647653 4.50272e-18 -0.231314)
(0.784571 0 -0.0286465)
(0.72739 0 0.329958)
(0.191793 -1.48369e-18 0.964391)
(-1.17048 0 1.9391)
(-3.49012 0 3.40728)
(-6.43259 -3.88674e-17 5.18019)
(-9.49138 -1.97937e-17 6.85725)
(-11.5991 0 7.60343)
(-11.6063 0 6.53163)
(-8.94845 0 3.87764)
(-3.25325 1.81696e-17 -0.475216)
(6.11824 0 -7.34589)
(22.907 0 -16.8925)
(33.4105 3.00311e-16 -21.9913)
(40.8725 1.41449e-16 -20.0894)
(-0.392782 0 5.93828)
(-10.5792 0 22.743)
(-149.185 0 117.698)
(-179.18 1.48043e-16 116.43)
(-370.196 2.07133e-16 154.322)
(191.516 8.03421e-16 -149.33)
(118.283 -7.12393e-16 -41.1282)
(9.98113 -1.16223e-16 10.2487)
(-54.2427 7.32411e-16 37.3318)
(-38.0868 0 1.71416)
(180.207 0 -152.565)
(496.5 -4.07073e-16 -335.422)
(621.816 0 -360.588)
(392.88 0 -186.321)
(168.516 0 -52.1126)
(-57.3291 0 83.1218)
(-284.217 0 193.887)
(-299.423 -4.91464e-16 172.449)
(-268.413 0 141.967)
(-210.047 -8.05071e-16 107.263)
(-139.568 0 69.7261)
(-93.0725 -1.55226e-18 43.4014)
(-31.9848 -6.98757e-16 11.2117)
(3.9706 0 -5.33646)
(3.3453 0 0.216037)
(-23.7453 0 16.815)
(-26.59 0 11.959)
(41.4692 -4.15136e-18 -35.3272)
(129.679 0 -82.8743)
(131.469 0 -70.6194)
(37.543 0 -8.96319)
(-42.0923 0 31.901)
(-56.2034 0 32.2067)
(-40.064 0 20.6259)
(-24.4376 0 12.2188)
(-12.7251 0 6.10032)
(-3.94103 -1.55939e-16 1.30995)
(4.1522 0 -2.928)
(7.24555 0 -4.58228)
(7.77827 0 -4.27561)
(-0.476537 3.93417e-17 0.950318)
(-9.40473 0 6.62458)
(-22.6042 7.39153e-17 14.5223)
(-32.5689 0 19.6396)
(-37.0306 -1.0745e-18 21.8749)
(-39.2601 0 22.4316)
(-35.5099 -3.31031e-18 19.9856)
(-30.7936 0 17.1279)
(-26.7435 0 14.7932)
(-21.4883 0 11.8357)
(-18.8266 3.02137e-17 10.5059)
(-17.472 6.04407e-16 9.82047)
(-15.2868 -9.82778e-16 8.78489)
(-17.9722 5.88491e-16 10.6223)
(-8.57828 0 5.70617)
(-8.52781 3.87019e-19 5.57274)
(-8.8504 0 5.8606)
(-9.62103 0 6.11523)
(-10.6187 -2.61149e-20 5.90391)
(-11.6836 -1.3278e-19 5.81612)
(-12.7073 9.54128e-20 6.26145)
(-13.5977 1.72138e-19 6.80021)
(-14.3255 0 6.97727)
(-14.8411 3.00605e-20 6.84222)
(-15.0529 -2.42885e-19 6.62811)
(-14.8882 0 6.44188)
(-14.3295 0 6.27696)
(-13.4661 0 6.08684)
(-12.4938 0 5.84101)
(-11.7033 -5.36398e-20 5.4647)
(-11.1345 -6.10247e-20 5.12256)
(-10.5188 -1.9832e-19 4.82106)
(-9.69914 7.19464e-19 4.49911)
(-8.63699 0 4.21548)
(-7.54001 -2.03395e-20 3.79324)
(-6.70763 2.25869e-18 3.3078)
(-6.2103 0 2.84219)
(-5.79898 -4.25361e-19 2.64516)
(-5.1915 9.53109e-19 2.63108)
(-4.49034 -7.49885e-19 2.6238)
(-3.99438 0 2.26905)
(-3.73999 0 1.53022)
(-4.09256 1.3053e-17 0.51902)
(-4.3479 7.8845e-18 0.433311)
(-1.41913 5.22176e-17 2.88549)
(-0.636286 0 1.66834)
(-1.01666 -1.95362e-17 1.41965)
(-1.38672 0 1.01344)
(-1.5481 0 0.667182)
(-1.27448 -3.52274e-18 0.615004)
(-1.01368 0 0.586136)
(-0.989994 4.36849e-18 0.484356)
(-1.04924 -3.41227e-19 0.400149)
(-0.995839 -3.18761e-19 0.376055)
(-0.839269 0 0.385739)
(-0.772079 8.06199e-20 0.361136)
(-0.841838 0 0.26188)
(-0.937228 0 0.116336)
(-0.834857 0 -0.0377543)
(-0.496717 0 -0.172546)
(-0.0129667 0 -0.314074)
(0.446403 4.48371e-18 -0.448194)
(0.709295 0 -0.528452)
(0.849836 0 -0.530964)
(0.92928 -2.17821e-18 -0.383136)
(1.03006 0 -0.110097)
(0.910784 -4.02617e-18 0.329965)
(0.291784 1.19747e-18 1.09037)
(-1.19253 -8.16631e-18 2.22785)
(-3.68946 0 3.90823)
(-6.90203 1.7967e-17 5.90039)
(-10.3302 -1.82271e-17 7.71843)
(-12.8092 0 8.44873)
(-12.8928 0 7.08808)
(-9.6912 0 3.74178)
(-2.83483 -1.706e-17 -1.64786)
(8.32679 0 -10.1018)
(27.2476 0 -20.8715)
(38.1081 -1.41328e-16 -25.5525)
(43.9537 -1.34236e-16 -20.056)
(-3.53348 0 10.6843)
(-14.9818 0 32.564)
(-167.336 0 136.134)
(-126.407 0 97.6779)
(-502.417 1.80222e-16 214.003)
(173.486 -7.53267e-16 -163.862)
(139.39 0 -45.1322)
(18.3121 0 12.3593)
(-49.1515 -6.86418e-16 36.4699)
(-21.7885 0 -18.9329)
(240.43 -1.18009e-16 -210.3)
(589.022 -3.76399e-16 -404.481)
(680.205 0 -388.445)
(377.334 0 -160.016)
(147.287 0 -23.3335)
(-82.6353 0 115.513)
(-312.387 0 218.327)
(-315.429 2.2929e-16 180.814)
(-286.034 0 148.568)
(-228.959 1.50245e-15 113.672)
(-156.251 0 75.4292)
(-106.193 -1.73638e-18 47.077)
(-38.5919 5.48844e-18 11.9159)
(3.9445 0 -6.5704)
(4.37814 -1.26257e-16 0.42894)
(-23.4174 0 17.5556)
(-22.4437 0 7.6939)
(55.139 9.43214e-18 -47.7346)
(148.199 0 -96.0286)
(141.123 0 -73.4604)
(35.045 0 -2.44962)
(-48.6161 0 38.1324)
(-62.3095 0 35.5802)
(-44.5847 0 22.3641)
(-27.4273 0 13.2171)
(-14.4151 0 6.54917)
(-4.92407 1.45685e-16 1.46173)
(3.4035 0 -2.95487)
(5.97397 0 -3.95066)
(5.53892 0 -2.77364)
(-4.24433 -3.6455e-17 3.81981)
(-14.5301 -8.51887e-17 10.4102)
(-29.0843 -6.62181e-17 18.7533)
(-39.6467 -2.51653e-17 24.0008)
(-44.2122 -1.33671e-18 26.145)
(-46.0834 -2.15476e-17 26.2415)
(-42.0118 6.56136e-18 23.5036)
(-36.3646 0 20.0806)
(-32.1376 -2.41529e-16 17.6569)
(-26.1116 1.19158e-17 14.2958)
(-23.2661 0 12.944)
(-21.7669 -2.82197e-16 12.2116)
(-19.3409 4.5867e-16 11.1036)
(-22.1079 -5.49297e-16 13.0634)
(-8.46471 0 5.6575)
(-8.45287 -1.97469e-19 5.65398)
(-8.59246 0 5.97395)
(-8.94578 0 6.2272)
(-9.48556 2.45859e-20 6.05552)
(-10.2596 1.25001e-19 5.95806)
(-11.2154 -8.98031e-20 6.36257)
(-12.2839 -1.86771e-19 6.92159)
(-13.4572 0 7.17936)
(-14.6408 -2.53971e-19 7.14747)
(-15.6152 3.03513e-19 7.06552)
(-16.1649 0 7.04984)
(-16.196 3.56653e-19 7.0657)
(-15.7885 0 7.02552)
(-15.1522 -4.23687e-19 6.88597)
(-14.5399 -1.01833e-18 6.60311)
(-14.0091 -9.49025e-19 6.30688)
(-13.3695 1.86653e-19 6.02631)
(-12.4804 -1.25814e-18 5.69561)
(-11.3557 0 5.34275)
(-10.1849 1.917e-20 4.8497)
(-9.21066 0 4.2955)
(-8.47636 0 3.78233)
(-7.81021 1.54595e-18 3.5046)
(-7.01774 4.95075e-19 3.43173)
(-6.23231 0 3.30154)
(-5.54707 0 3.08505)
(-5.00547 0 2.66424)
(-4.77359 -8.35463e-18 2.09123)
(-4.22208 1.22906e-17 2.35026)
(-2.04849 -1.229e-17 3.57448)
(-1.44351 -1.21541e-17 2.44582)
(-1.85799 2.06329e-17 1.69737)
(-2.14249 -3.47008e-18 1.12045)
(-2.06221 -2.8757e-18 0.862509)
(-1.60606 3.16036e-20 0.848325)
(-1.32299 0 0.692376)
(-1.23271 -4.10861e-18 0.558582)
(-1.20915 -3.8894e-18 0.443062)
(-1.07679 2.99744e-19 0.387186)
(-0.857548 0 0.364865)
(-0.745387 1.95666e-18 0.304059)
(-0.771928 2.53816e-20 0.166455)
(-0.816581 -9.23859e-19 -0.0182779)
(-0.658187 5.71911e-19 -0.208245)
(-0.270102 0 -0.373322)
(0.251533 0 -0.541219)
(0.741857 -2.49509e-19 -0.689646)
(1.02677 0 -0.766182)
(1.18106 0 -0.745348)
(1.25793 -2.24139e-18 -0.554726)
(1.33704 2.99209e-18 -0.21593)
(1.18131 3.78129e-18 0.299678)
(0.517511 -8.5743e-20 1.17096)
(-1.02826 2.05016e-19 2.44969)
(-3.6177 0 4.30873)
(-6.99709 0 6.47669)
(-10.7036 3.38671e-17 8.38607)
(-13.5283 0 9.04847)
(-13.7645 0 7.34165)
(-10.0999 -1.88944e-17 3.25441)
(-2.1437 0 -3.24985)
(10.7184 0 -13.2844)
(31.3855 -4.51183e-17 -24.9857)
(42.064 1.32613e-16 -28.6391)
(45.8132 1.26441e-16 -18.8701)
(-6.73509 0 16.0857)
(-18.839 -3.60416e-16 43.0891)
(-180.823 0 148.369)
(-63.1031 0 80.3106)
(-622.535 -3.2762e-16 269.84)
(140.099 0 -178.81)
(157.906 0 -48.4616)
(27.7411 0 14.8499)
(-39.8863 0 32.8624)
(4.63908 0 -42.4757)
(305.399 1.10506e-16 -274.158)
(672.022 3.80542e-18 -469.24)
(712.617 -7.17357e-17 -396.496)
(337.553 2.71872e-16 -115.988)
(128.132 0 4.81561)
(-101.892 0 142.271)
(-330.267 0 237.421)
(-326.037 0 185.879)
(-298.025 0 151.871)
(-243.041 -5.09675e-18 117.038)
(-170.929 0 79.626)
(-119.231 -2.07266e-16 50.1057)
(-46.3211 6.93788e-18 12.6401)
(2.8556 0 -7.43988)
(5.5913 1.18048e-16 0.538629)
(-21.1888 0 17.1636)
(-16.0582 -1.45473e-17 1.6673)
(68.7772 1.61186e-18 -60.7936)
(163.49 0 -107.358)
(146.701 0 -73.2775)
(31.5884 0 5.42098)
(-53.9006 0 44.0381)
(-67.3542 -2.0162e-16 38.3231)
(-48.5106 0 23.5971)
(-30.1794 0 13.9781)
(-16.1467 6.75872e-18 6.94785)
(-6.28804 0 1.76404)
(2.07691 4.89583e-17 -2.39385)
(3.85582 -1.73806e-17 -2.78899)
(2.29955 0 -0.733741)
(-9.07627 6.78113e-17 6.5752)
(-20.3777 1.648e-18 14.1116)
(-35.6811 1.21629e-16 23.1506)
(-46.6448 2.34973e-17 28.3389)
(-51.4201 -7.73295e-17 30.4377)
(-52.8853 2.01175e-17 30.0272)
(-48.7344 -3.2401e-18 27.1164)
(-42.2073 5.07063e-17 23.1592)
(-37.8903 2.25472e-16 20.6917)
(-31.1343 -1.11233e-17 16.9524)
(-28.1243 -2.84087e-17 15.5991)
(-26.3618 2.63297e-16 14.7542)
(-23.8065 0 13.6414)
(-26.3583 0 15.5689)
(-8.30983 0 5.6974)
(-8.33436 -2.15222e-19 5.72343)
(-8.43271 0 5.99703)
(-8.5871 0 6.24124)
(-8.80993 0 6.15222)
(-9.24077 0 6.09779)
(-9.87696 1.74795e-20 6.44611)
(-10.7026 7.25377e-20 6.94626)
(-11.8046 -2.31331e-19 7.2063)
(-13.1778 5.09274e-19 7.21316)
(-14.6128 -2.85335e-19 7.19571)
(-15.8163 0 7.29391)
(-16.5871 -3.35266e-19 7.47683)
(-16.9128 0 7.62613)
(-16.9316 3.98286e-19 7.66702)
(-16.8172 7.87334e-19 7.55949)
(-16.6101 0 7.39061)
(-16.1795 0 7.19958)
(-15.4139 5.46163e-19 6.92088)
(-14.3604 0 6.55623)
(-13.1982 0 6.03539)
(-12.1305 1.06226e-18 5.44027)
(-11.1989 0 4.88214)
(-10.3053 0 4.51251)
(-9.33408 7.26668e-20 4.33311)
(-8.35463 0 4.17537)
(-7.43636 0 4.03664)
(-6.60086 0 3.81329)
(-5.87462 1.07956e-17 3.5175)
(-4.94628 0 3.68606)
(-3.28161 -8.32592e-18 4.10845)
(-2.8051 -1.60075e-18 2.90783)
(-3.03769 -9.83277e-18 1.98897)
(-3.06732 3.26115e-18 1.34221)
(-2.6788 5.98827e-18 1.15577)
(-2.1191 3.08416e-18 1.10798)
(-1.76332 0 0.894311)
(-1.59165 0 0.639037)
(-1.44402 -2.92914e-18 0.519712)
(-1.2112 -4.36931e-19 0.42423)
(-0.917671 0 0.352738)
(-0.74777 0 0.247602)
(-0.719178 -2.13997e-20 0.0665349)
(-0.703455 8.67645e-19 -0.161308)
(-0.482465 -5.3707e-19 -0.390447)
(-0.0405085 -4.28072e-18 -0.587544)
(0.521155 0 -0.782989)
(1.04692 -2.4794e-19 -0.944865)
(1.36155 0 -1.01688)
(1.5409 0 -0.974003)
(1.63139 2.10373e-18 -0.745349)
(1.70955 -2.80805e-18 -0.349648)
(1.54786 0 0.230338)
(0.881243 -9.74714e-19 1.19303)
(-0.664216 2.03076e-19 2.58878)
(-3.26206 0 4.59313)
(-6.70619 0 6.89649)
(-10.5979 -3.09887e-17 8.85358)
(-13.7384 0 9.40319)
(-14.2071 0 7.29705)
(-10.1837 3.50507e-17 2.41798)
(-1.23805 0 -5.30781)
(13.2332 0 -16.8029)
(35.2042 8.22139e-17 -29.1429)
(45.2146 -1.24288e-16 -31.1481)
(46.6209 -5.92695e-17 -16.8246)
(-9.45961 0 21.8005)
(-21.6645 3.37683e-16 53.8757)
(-188.198 0 153.749)
(-6.61922 -1.27554e-16 73.2855)
(-686.246 1.48666e-16 297.841)
(99.4468 0 -198.308)
(173.653 0 -51.6928)
(37.6628 1.14261e-16 17.7169)
(-25.9794 5.79184e-16 26.4291)
(28.876 0 -89.9538)
(372.45 0 -341.796)
(741.494 6.45955e-16 -527.389)
(717.679 6.71264e-17 -382.724)
(279.927 -5.11456e-16 -58.8605)
(119.428 0 26.8723)
(-110.196 0 165.437)
(-339.829 0 252.071)
(-334.308 0 189.418)
(-305.931 0 152.679)
(-253.338 -5.80255e-18 118.006)
(-183.545 0 82.4342)
(-132.462 0 52.6954)
(-55.6149 8.467e-18 13.6061)
(0.0536487 0 -8.20336)
(6.78014 1.09443e-16 0.53528)
(-17.1783 0 15.6338)
(-7.89053 1.35951e-17 -5.83383)
(81.727 1.48818e-18 -74.0013)
(175.311 0 -116.577)
(148.757 0 -70.3433)
(27.8965 0 14.1974)
(-58.0236 0 49.3952)
(-71.56 -3.04869e-19 40.4928)
(-51.9718 -2.07124e-16 24.4306)
(-32.797 -3.70423e-17 14.565)
(-18.0242 -6.31266e-18 7.34829)
(-8.03494 0 2.26205)
(-0.0398029 -4.5721e-17 -1.64523)
(0.980703 1.62306e-17 -1.16778)
(-1.60469 0 1.92725)
(-13.8909 -3.15301e-17 10.2308)
(-26.139 1.43496e-16 18.2289)
(-42.1783 -5.58303e-17 27.5343)
(-53.4218 0 32.5852)
(-58.6449 6.87602e-17 34.7447)
(-59.7569 0 33.8105)
(-55.794 0 30.8717)
(-48.4574 -4.73332e-17 26.4093)
(-44.0929 0 23.9342)
(-36.6107 0 19.8215)
(-33.4368 2.65164e-17 18.4839)
(-31.2074 -2.45751e-16 17.422)
(-28.6384 3.97983e-16 16.3693)
(-30.6498 4.7592e-16 18.0913)
(-8.15636 0 5.76639)
(-8.17855 2.02279e-19 5.80058)
(-8.27205 2.79589e-19 6.00093)
(-8.38807 0 6.20278)
(-8.48193 0 6.19229)
(-8.68639 0 6.20322)
(-9.02047 -1.64188e-20 6.4961)
(-9.48503 0 6.91105)
(-10.2239 2.17342e-19 7.15204)
(-11.3414 0 7.18212)
(-12.737 0 7.18503)