/*--------------------------------*- C++ -*----------------------------------*\
| =========                 |                                                 |
| \\      /  F ield         | OpenFOAM: The Open Source CFD Toolbox           |
|  \\    /   O peration     | Version:  2412                                  |
|   \\  /    A nd           | Website:  www.openfoam.com                      |
|    \\/     M anipulation  |                                                 |
\*---------------------------------------------------------------------------*/
FoamFile
{
    version     2.0;
    format      ascii;
    arch        "LSB;label=32;scalar=64";
    class       volVectorField;
    location    "0.32";
    object      U_0;
}
// * * * * * * * * * * * * * * * * * * * * * * * * * * * * * * * * * * * * * //

dimensions      [0 1 -1 0 0 0 0];

internalField   nonuniform List<vector> 
12600
(
(21.1556 0 -1.22994)
(8.83093 -4.15352e-20 -1.88443)
(3.89119 -2.20038e-20 -1.90553)
(2.03802 0 -1.44405)
(1.31467 -1.6144e-22 -0.987863)
(0.931449 0 -0.688885)
(0.674378 -2.96038e-20 -0.496706)
(0.487496 0 -0.363793)
(0.34695 0 -0.266112)
(0.239048 0 -0.191781)
(0.154281 0 -0.134654)
(0.0867023 -1.02214e-19 -0.0898029)
(0.0325307 -1.05172e-19 -0.0537593)
(-0.0111077 0 -0.0245115)
(-0.046239 2.15835e-19 -0.000669705)
(-0.0749738 0 0.0193403)
(-0.0982607 3.41676e-22 0.0342323)
(-0.116027 0 0.0472907)
(-0.130659 1.06144e-19 0.0578273)
(-0.141681 0 0.0661004)
(-0.1503 0 0.0726074)
(-0.156374 0 0.0775706)
(-0.160593 3.95662e-19 0.0812594)
(-0.163053 -3.86407e-19 0.0838002)
(-0.164119 -1.96327e-22 0.08541)
(-0.163855 1.83398e-19 0.0863045)
(-0.162558 0 0.086536)
(-0.160446 0 0.086186)
(-0.157607 0 0.0852733)
(-0.154228 -3.24702e-19 0.0839291)
(-0.150342 -6.2792e-19 0.0822509)
(-0.14605 0 0.0803319)
(-0.141485 0 0.078177)
(-0.136725 -2.82807e-19 0.0758413)
(-0.131818 -2.72672e-19 0.0733748)
(-0.126819 0 0.0708079)
(-0.121792 0 0.0681854)
(-0.116775 -4.86777e-19 0.0655341)
(-0.11179 0 0.0628714)
(-0.106859 9.13385e-23 0.0602144)
(-0.10201 -4.325e-19 0.0575822)
(-0.0972385 -4.15456e-19 0.0549751)
(-0.0925177 0 0.0523824)
(-0.0878569 -3.82712e-19 0.0498118)
(-0.083272 -3.67045e-19 0.0472746)
(-0.078832 7.03834e-19 0.0448117)
(-0.0746729 -6.74607e-19 0.0424999)
(-0.0709848 0 0.040446)
(-0.0679794 6.18891e-19 0.0387662)
(-0.0657638 -5.92496e-19 0.0375176)
(-0.0642504 0 0.0366498)
(-0.0629466 -3.16072e-23 0.0358955)
(-0.0608014 5.19256e-19 0.0346607)
(-0.056178 0 0.0318961)
(-0.0469027 -9.49973e-19 0.0264734)
(-0.03141 0 0.017596)
(-0.0101711 0 0.00578623)
(0.0121505 -6.22303e-25 -0.00665302)
(0.0281878 -2.88949e-23 -0.0157502)
(0.0329775 7.47068e-19 -0.0185561)
(0.0298326 -7.10626e-19 -0.0167696)
(0.0233926 1.35125e-18 -0.0128533)
(0.0112049 0 -0.00535098)
(-0.0192936 1.21539e-18 0.012757)
(-0.0727801 1.15148e-18 0.0437115)
(-0.152212 -2.18811e-18 0.0876637)
(-0.221127 1.04978e-18 0.125217)
(-0.225167 0 0.125954)
(-0.107335 0 0.055296)
(0.243277 0 -0.133864)
(0.929208 0 -0.519527)
(0.59052 0 -0.326651)
(0.131797 -1.32032e-18 -0.0792887)
(0.137952 1.25843e-18 -0.0796688)
(0.196084 0 -0.112063)
(0.302296 0 -0.170819)
(0.366334 9.93948e-19 -0.20218)
(0.184272 3.02449e-21 -0.0868619)
(-0.383722 1.20249e-18 0.244583)
(-1.15791 0 0.675373)
(-1.7656 0 0.998878)
(-1.99748 0 1.11684)
(-1.79965 -1.01635e-20 0.998795)
(-1.23714 0 0.6793)
(-0.656057 0 0.357063)
(-0.265797 2.70404e-18 0.141697)
(-0.00170975 -7.13325e-22 -0.00400608)
(0.129588 0 -0.0765629)
(0.179507 0 -0.103376)
(0.183135 -4.39647e-18 -0.105002)
(0.15203 -4.13349e-18 -0.0874618)
(0.147591 -3.89332e-18 -0.0856163)
(0.189828 -3.67323e-18 -0.109145)
(0.234212 6.40091e-22 -0.132669)
(0.180072 1.07479e-21 -0.0989579)
(0.0132594 2.88523e-18 -0.00308043)
(-0.157837 0 0.0900306)
(-0.19731 0 0.110561)
(-0.144607 0 0.0799413)
(-0.0796954 9.41939e-18 0.0433775)
(-0.0367828 -4.45978e-18 0.019556)
(-0.00692068 4.20733e-18 0.00291444)
(0.00592642 3.95743e-18 -0.00402921)
(0.0119125 0 -0.00719527)
(0.00286875 0 -0.00201512)
(-0.0132629 0 0.00706115)
(-0.031195 6.13134e-18 0.0169836)
(-0.0494685 0 0.027138)
(-0.0466998 -5.45781e-18 0.0249275)
(-0.0405915 0 0.0209772)
(-0.00547664 0 0.00028546)
(0.028445 4.64304e-18 -0.019201)
(0.0702811 0 -0.0433479)
(0.121218 0 -0.0721627)
(0.141188 0 -0.0837179)
(0.206101 -7.34227e-18 -0.120516)
(0.19767 0 -0.115776)
(0.280849 6.45526e-18 -0.163317)
(0.25631 0 -0.149304)
(0.39805 7.78344e-23 -0.230321)
(33.4119 -1.59344e-20 -1.915)
(23.8208 2.40781e-20 -4.05584)
(15.5055 1.50966e-20 -4.94754)
(10.0524 0 -4.36279)
(6.84988 -9.10324e-21 -3.36104)
(4.89555 2.08724e-20 -2.52256)
(3.61846 3.08796e-20 -1.90448)
(2.72236 -3.69582e-20 -1.44847)
(2.05936 0 -1.10274)
(1.55185 0 -0.83396)
(1.15405 0 -0.621722)
(0.837212 0 -0.45151)
(0.58174 0 -0.313127)
(0.373743 0 -0.199732)
(0.203762 -8.57604e-22 -0.106462)
(0.0620515 0 -0.0291479)
(-0.0523302 1.1242e-19 0.0357561)
(-0.145669 0 0.0876528)
(-0.223962 -2.20478e-19 0.130347)
(-0.286423 2.17028e-19 0.165472)
(-0.337311 0 0.19393)
(-0.37727 2.09376e-19 0.216405)
(-0.408552 -2.05419e-19 0.233998)
(-0.431973 2.00536e-19 0.247238)
(-0.448849 -1.95408e-19 0.256868)
(-0.460166 0 0.262936)
(-0.466692 1.84368e-19 0.266337)
(-0.469251 0 0.267455)
(-0.468117 0 0.266755)
(-0.464062 0 0.264509)
(-0.457515 3.24662e-19 0.260785)
(-0.448976 0 0.255839)
(-0.4388 0 0.250012)
(-0.427314 0 0.243488)
(-0.414807 0 0.236375)
(-0.401502 0 0.228831)
(-0.387672 0 0.220997)
(-0.373498 5.00835e-19 0.212968)
(-0.359104 0 0.204811)
(-0.344609 9.24433e-19 0.196594)
(-0.330136 8.87474e-19 0.188386)
(-0.315714 4.25727e-19 0.180191)
(-0.301299 0 0.17199)
(-0.286946 0 0.163822)
(-0.27273 7.50262e-19 0.155737)
(-0.258879 -7.1866e-19 0.147885)
(-0.245827 6.87911e-19 0.140527)
(-0.234168 0 0.134014)
(-0.224563 -6.29734e-19 0.128711)
(-0.217346 0 0.124776)
(-0.21224 0 0.121979)
(-0.207724 -5.50327e-19 0.119324)
(-0.200503 0 0.114802)
(-0.185296 0 0.105225)
(-0.15536 9.59809e-19 0.0868662)
(-0.105751 0 0.0573059)
(-0.0379104 0 0.0182208)
(0.0340772 -1.53496e-24 -0.0224661)
(0.0872739 7.89393e-19 -0.051711)
(0.10465 6.8773e-23 -0.0603929)
(0.0946875 0 -0.0536916)
(0.0711365 -1.35254e-18 -0.039272)
(0.0266815 -1.28246e-18 -0.0115418)
(-0.077535 0 0.051782)
(-0.25279 -2.2953e-18 0.156186)
(-0.502781 -9.08145e-23 0.299294)
(-0.706871 0 0.411927)
(-0.710572 1.01176e-18 0.400807)
(-0.327466 0 0.156689)
(0.664217 0 -0.440388)
(2.83504 0 -1.65382)
(1.91318 0 -1.04414)
(0.507633 2.60002e-18 -0.27241)
(0.463151 -1.2373e-18 -0.269876)
(0.640126 0 -0.376218)
(0.950874 0 -0.556221)
(1.06462 9.77314e-19 -0.607703)
(0.340599 4.86876e-21 -0.152698)
(-1.54516 4.61475e-21 0.967403)
(-3.88701 0 2.31237)
(-5.56469 0 3.24478)
(-6.05248 0 3.4966)
(-5.31991 -1.55399e-20 3.03367)
(-3.61825 -2.42907e-18 2.02944)
(-1.90588 2.59911e-18 1.05211)
(-0.751093 -2.61269e-18 0.401485)
(0.0442537 -1.14163e-21 -0.0440543)
(0.451862 -2.38959e-18 -0.268785)
(0.601486 0 -0.349116)
(0.60863 4.22576e-18 -0.349774)
(0.513532 0 -0.294682)
(0.505175 3.73298e-18 -0.29272)
(0.629815 0 -0.36636)
(0.731216 -6.5652e-18 -0.422489)
(0.515636 -3.01475e-18 -0.289464)
(-0.0125213 0 0.0203297)
(-0.501309 0 0.296447)
(-0.583435 -4.90296e-18 0.337099)
(-0.412295 4.69922e-18 0.23428)
(-0.216091 -8.95241e-18 0.121256)
(-0.0894349 4.23561e-18 0.0493913)
(-1.73449e-05 -3.99227e-18 -0.00122451)
(0.0348517 0 -0.0205482)
(0.0504142 3.51826e-18 -0.0288507)
(0.0204458 0 -0.0109417)
(-0.0264818 0 0.0164681)
(-0.0732801 -5.79386e-18 0.0437617)
(-0.11638 0 0.0683404)
(-0.0911152 1.01289e-21 0.0533458)
(-0.0547351 4.87272e-18 0.0316676)
(0.0649094 0 -0.0382332)
(0.181682 0 -0.105536)
(0.313025 0 -0.182393)
(0.476714 3.90084e-18 -0.275674)
(0.536119 -7.36943e-18 -0.31114)
(0.745045 6.90239e-18 -0.430311)
(0.712781 0 -0.412898)
(0.986089 -6.06311e-18 -0.569664)
(0.897826 0 -0.520913)
(1.35412 1.05906e-17 -0.784712)
(37 3.397e-20 -1.94153)
(32.5913 -8.84246e-21 -3.85696)
(26.0001 1.54072e-21 -5.5547)
(19.5494 0 -5.95747)
(14.4094 -1.22231e-20 -5.40309)
(10.7121 7.35543e-22 -4.5104)
(8.10962 0 -3.64024)
(6.23117 3.50762e-20 -2.90347)
(4.82791 0 -2.30303)
(3.74899 4.37668e-20 -1.81576)
(2.901 0 -1.41808)
(2.22295 0 -1.09128)
(1.67348 0 -0.821009)
(1.22369 0 -0.596302)
(0.85325 -1.05704e-19 -0.408885)
(0.544624 0 -0.252742)
(0.291932 0 -0.11745)
(0.0801938 0 -0.00927047)
(-0.0955455 1.04403e-19 0.0829224)
(-0.239953 -6.81211e-22 0.158635)
(-0.359716 0 0.221392)
(-0.456653 -5.16224e-22 0.27276)
(-0.535036 0 0.31436)
(-0.596954 -1.89441e-19 0.347286)
(-0.645084 0 0.372959)
(-0.681262 0 0.391759)
(-0.706941 -1.74879e-19 0.405142)
(-0.72384 0 0.413899)
(-0.733202 0 0.418149)
(-0.73638 -3.17833e-19 0.418835)
(-0.734003 0 0.41663)
(-0.727015 0 0.411911)
(-0.716203 0 0.405217)
(-0.7023 0 0.396928)
(-0.685833 2.66116e-19 0.387393)
(-0.66733 0 0.376809)
(-0.647327 0 0.36547)
(-0.626217 -4.74055e-19 0.353554)
(-0.604283 0 0.3412)
(-0.581786 -8.75185e-19 0.328553)
(-0.55899 -1.16052e-22 0.315747)
(-0.536002 -4.03057e-19 0.302805)
(-0.512803 0 0.289726)
(-0.489516 0 0.276603)
(-0.466303 -3.54946e-19 0.263551)
(-0.443551 0 0.250853)
(-0.421989 -6.50735e-19 0.238963)
(-0.402598 0 0.228474)
(-0.386475 6.20253e-23 0.219962)
(-0.374187 0 0.213633)
(-0.365295 0 0.208985)
(-0.357324 0 0.204171)
(-0.344834 -4.96831e-19 0.195694)
(-0.319014 0 0.178364)
(-0.26879 0 0.146067)
(-0.185889 0 0.0951903)
(-0.0723991 0 0.0288874)
(0.0493152 1.56819e-18 -0.0390023)
(0.141464 0 -0.0868846)
(0.173802 5.67793e-23 -0.100334)
(0.157619 0 -0.0873529)
(0.114737 6.37816e-19 -0.0595836)
(0.0337936 1.20917e-18 -0.00605376)
(-0.148556 0 0.109246)
(-0.446896 2.16377e-18 0.291248)
(-0.860847 1.02583e-18 0.528195)
(-1.18491 0 0.695368)
(-1.18205 -9.52835e-19 0.648902)
(-0.541841 0 0.212874)
(0.937387 0 -0.736548)
(4.5492 0 -2.67956)
(3.25763 0 -1.69995)
(0.97197 -1.39026e-22 -0.483585)
(0.806163 1.16358e-18 -0.471321)
(1.08436 0 -0.649085)
(1.56839 0 -0.924086)
(1.65036 2.33132e-21 -0.907925)
(0.273256 -1.52011e-18 0.0115537)
(-2.95372 -5.56751e-19 1.95981)
(-6.69751 0 4.07692)
(-9.17236 0 5.37104)
(-9.67982 0 5.5527)
(-8.36199 -3.72277e-18 4.64998)
(-5.65749 9.23306e-21 3.04451)
(-2.97507 -2.43821e-18 1.54832)
(-1.15144 0 0.555851)
(0.124639 -2.36047e-18 -0.13353)
(0.797866 2.24024e-18 -0.486798)
(1.0432 0 -0.608101)
(1.05254 0 -0.601513)
(0.898953 3.71813e-18 -0.513176)
(0.888401 0 -0.516777)
(1.08092 3.29506e-18 -0.631703)
(1.20367 -8.26651e-22 -0.68806)
(0.800008 2.82547e-18 -0.425213)
(-0.0714327 -2.58052e-18 0.0870055)
(-0.824959 0 0.49636)
(-0.917219 4.5884e-18 0.522545)
(-0.631759 -4.39707e-18 0.345786)
(-0.315822 8.37367e-18 0.16673)
(-0.115281 0 0.0565062)
(0.0283981 -3.73334e-18 -0.0221634)
(0.0802244 0 -0.0487214)
(0.103772 -3.28983e-18 -0.0596661)
(0.0537402 3.08099e-18 -0.0288288)
(-0.0169161 0 0.0121874)
(-0.081638 5.41581e-18 0.0489049)
(-0.133531 0 0.0763231)
(-0.0729406 9.62515e-18 0.0380654)
(0.00786468 -4.5534e-18 -0.0124713)
(0.214784 0 -0.134657)
(0.42013 0 -0.252876)
(0.636686 0 -0.379894)
(0.913089 -5.34321e-22 -0.535014)
(1.00753 6.88361e-18 -0.592044)
(1.36145 -6.44559e-18 -0.791096)
(1.30081 0 -0.759312)
(1.76957 -5.66147e-18 -1.02617)
(1.60889 0 -0.939777)
(2.37436 -9.11793e-23 -1.38116)
(37.4718 -1.78657e-20 -2.25714)
(36.4004 -5.50688e-21 -3.36705)
(32.8234 5.54816e-21 -5.09259)
(27.7693 -1.35304e-20 -6.26753)
(22.4938 -2.00394e-20 -6.5122)
(17.8319 -4.05727e-20 -6.0611)
(14.0621 0 -5.29371)
(11.117 0 -4.46687)
(8.82218 0 -3.69823)
(7.01535 -4.14546e-20 -3.02464)
(5.57362 0 -2.44788)
(4.40849 0 -1.95804)
(3.45657 0 -1.5428)
(2.67188 0 -1.19069)
(2.021 0 -0.891878)
(1.47672 -9.94922e-20 -0.638864)
(1.02347 9.952e-20 -0.421134)
(0.643329 0 -0.240093)
(0.325322 0 -0.0839296)
(0.0589062 -1.9444e-19 0.0452763)
(-0.163344 1.90717e-19 0.154573)
(-0.347132 -1.87673e-19 0.245219)
(-0.498805 1.83245e-19 0.320271)
(-0.622083 1.79387e-19 0.381479)
(-0.721236 -1.74532e-19 0.430882)
(-0.799265 1.69871e-19 0.469786)
(-0.859064 0 0.499771)
(-0.90366 -1.60171e-19 0.522014)
(-0.935014 0 0.536959)
(-0.954875 3.00815e-19 0.546056)
(-0.965061 0 0.549621)
(-0.967408 0 0.548131)
(-0.962564 0 0.543549)
(-0.951752 -2.61131e-19 0.536366)
(-0.93621 -2.51735e-19 0.526656)
(-0.916673 0 0.515099)
(-0.894061 0 0.502042)
(-0.86906 4.48276e-19 0.487788)
(-0.842181 0 0.47258)
(-0.813884 1.43218e-22 0.456663)
(-0.78463 -3.96996e-19 0.440259)
(-0.754659 0 0.423428)
(-0.724025 0 0.40621)
(-0.692956 0 0.388779)
(-0.66173 0 0.371331)
(-0.630908 -6.41923e-19 0.3543)
(-0.601506 0 0.338342)
(-0.574876 5.87769e-19 0.324287)
(-0.552527 5.62144e-19 0.312896)
(-0.53526 0 0.304374)
(-0.522478 0 0.297894)
(-0.5108 0 0.29073)
(-0.492793 4.68739e-19 0.277842)
(-0.456473 -4.47624e-19 0.251886)
(-0.386699 -8.54681e-19 0.204642)
(-0.272014 0 0.131671)
(-0.114626 -7.76898e-19 0.03824)
(0.0560166 -1.47815e-18 -0.0558646)
(0.188311 0 -0.121127)
(0.238078 -1.33335e-18 -0.138185)
(0.216408 0 -0.117666)
(0.151898 -6.00898e-19 -0.0737738)
(0.0298569 -1.13914e-18 0.0107648)
(-0.234759 0 0.184319)
(-0.655863 -1.01847e-18 0.447619)
(-1.22338 -9.65445e-19 0.772228)
(-1.64742 0 0.976276)
(-1.62867 0 0.874761)
(-0.746071 0 0.237442)
(1.04557 8.38424e-19 -1.01574)
(5.97756 7.13743e-19 -3.60283)
(4.59243 0 -2.31036)
(1.52869 -1.14886e-18 -0.708816)
(1.16845 -1.09338e-18 -0.681563)
(1.52128 0 -0.926822)
(2.13668 0 -1.27036)
(2.09038 -8.64506e-19 -1.10952)
(-0.0546571 -4.24834e-21 0.370738)
(-4.60701 0 3.16096)
(-9.51166 0 5.91231)
(-12.4465 0 7.34662)
(-12.7386 0 7.29332)
(-10.8108 1.46054e-20 5.93386)
(-7.28824 2.12841e-18 3.81298)
(-3.8327 0 1.90311)
(-1.45451 0 0.63528)
(0.238679 0 -0.257799)
(1.16257 2.09838e-18 -0.723555)
(1.50153 0 -0.879067)
(1.51341 3.70985e-18 -0.862193)
(1.30874 -3.48184e-18 -0.744034)
(1.29581 3.27388e-18 -0.755307)
(1.53614 -3.08467e-18 -0.901248)
(1.64166 5.75787e-18 -0.932806)
(1.0282 -2.64425e-18 -0.52414)
(-0.156141 2.41466e-18 0.176684)
(-1.11348 0 0.682969)
(-1.18575 0 0.673424)
(-0.793998 -4.10996e-18 0.425776)
(-0.372274 -3.91526e-18 0.187791)
(-0.109423 -3.70343e-18 0.0457499)
(0.0826339 3.47447e-22 -0.057343)
(0.146102 0 -0.0879215)
(0.177246 0 -0.10109)
(0.109647 -2.87981e-18 -0.0582366)
(0.0254353 0 -0.00907605)
(-0.0445653 -5.06028e-18 0.0306651)
(-0.08704 0 0.0510497)
(0.0205702 -9.74988e-22 -0.0172064)
(0.160281 0 -0.103755)
(0.45474 -4.03572e-18 -0.279179)
(0.753114 3.81412e-18 -0.450207)
(1.04919 3.61825e-18 -0.625461)
(1.43721 -6.14196e-22 -0.841285)
(1.56219 0 -0.91874)
(2.06116 6.01936e-18 -1.19722)
(1.96833 5.65788e-18 -1.15023)
(2.63572 5.28648e-18 -1.52865)
(2.39599 0 -1.40311)
(3.45565 -1.00517e-22 -2.01584)
(37.03 0 -2.78545)
(37.2707 -4.05752e-21 -3.28125)
(36.0438 0 -4.54047)
(33.1855 1.27837e-20 -5.86578)
(29.2178 2.98571e-20 -6.69099)
(24.8662 1.99661e-20 -6.86352)
(20.7069 0 -6.51956)
(17.0404 0 -5.87942)
(13.9426 -3.5122e-20 -5.12609)
(11.3733 -3.84771e-20 -4.37108)
(9.25317 4.11653e-20 -3.66812)
(7.50059 8.64655e-20 -3.03695)
(6.04542 8.95098e-20 -2.48058)
(4.83106 0 -1.99495)
(3.81337 0 -1.57334)
(2.95609 1.87642e-19 -1.20942)
(2.23434 -4.50406e-22 -0.892907)
(1.62476 0 -0.623386)
(1.10968 -9.24376e-20 -0.390477)
(0.674944 -1.82594e-19 -0.192956)
(0.308716 -1.80305e-19 -0.0237142)
(0.00134339 0 0.118544)
(-0.255397 -1.73224e-19 0.23843)
(-0.468175 1.68851e-19 0.337962)
(-0.643098 1.64968e-19 0.420293)
(-0.785112 -2.72461e-22 0.486885)
(-0.898394 0 0.54018)
(-0.987378 2.01362e-22 0.581759)
(-1.05469 0 0.613346)
(-1.10379 2.83607e-19 0.636362)
(-1.13752 0 0.651284)
(-1.15766 0 0.659221)
(-1.16697 0 0.660065)
(-1.16684 2.46639e-19 0.656352)
(-1.15824 0 0.649588)
(-1.14298 0 0.639427)
(-1.12229 0 0.626825)
(-1.09727 0 0.612157)
(-1.06875 -4.06283e-19 0.595775)
(-1.03747 7.80424e-19 0.57806)
(-1.00415 0 0.559344)
(-0.969234 3.59182e-19 0.539743)
(-0.932909 0 0.519366)
(-0.895552 0 0.49849)
(-0.857593 0 0.47742)
(-0.819777 1.09256e-22 0.456757)
(-0.783406 0 0.437373)
(-0.750184 -5.54206e-19 0.420326)
(-0.722013 0 0.406531)
(-0.699921 0 0.396142)
(-0.683188 -4.83914e-19 0.387934)
(-0.667634 0 0.378215)
(-0.644019 0 0.360375)
(-0.597468 5.19789e-23 0.32504)
(-0.509186 8.05009e-19 0.262091)
(-0.364718 0 0.166667)
(-0.165946 3.79538e-23 0.0465267)
(0.0520736 1.39156e-18 -0.0725045)
(0.225435 0 -0.153457)
(0.295343 6.27425e-19 -0.172616)
(0.269422 0 -0.142867)
(0.181316 5.65293e-19 -0.0796706)
(0.0138886 1.07145e-18 0.0415678)
(-0.336336 0 0.279402)
(-0.878314 9.58157e-19 0.62607)
(-1.5863 2.6805e-24 1.02935)
(-2.09017 0 1.24929)
(-2.04807 0 1.07085)
(-0.945787 0 0.233188)
(0.998539 -1.57545e-18 -1.27848)
(7.04416 1.98315e-21 -4.368)
(5.88795 0 -2.85906)
(2.17275 1.07805e-18 -0.942254)
(1.55171 2.05285e-18 -0.897638)
(1.9451 0 -1.20427)
(2.64451 0 -1.58014)
(2.37784 0 -1.18073)
(-0.625818 -3.97834e-21 0.957382)
(-6.44402 0 4.56334)
(-12.2308 0 7.74754)
(-15.2901 0 9.06985)
(-15.1974 0 8.62271)
(-12.7019 1.61672e-18 6.81558)
(-8.55469 1.97455e-18 4.29734)
(-4.5076 0 2.09833)
(-1.676 0 0.63168)
(0.374863 0 -0.417201)
(1.5369 -2.96844e-22 -0.976592)
(1.97279 0 -1.16012)
(1.99159 -3.47294e-18 -1.1303)
(1.74347 0 -0.987051)
(1.72462 -3.06394e-18 -1.0069)
(1.98996 0 -1.17017)
(2.0458 -2.69402e-18 -1.14826)
(1.21363 0 -0.579373)
(-0.247891 0 0.286568)
(-1.35532 0 0.847066)
(-1.38906 0 0.778609)
(-0.902556 3.84301e-18 0.465149)
(-0.387225 0 0.177879)
(-0.0722024 3.46213e-18 0.0123605)
(0.163893 3.26261e-18 -0.110681)
(0.235065 0 -0.141569)
(0.275763 0 -0.157131)
(0.194576 0 -0.103881)
(0.108733 0 -0.0541162)
(0.0445037 4.68548e-22 -0.0192247)
(0.0282458 0 -0.0185292)
(0.190543 -8.39781e-18 -0.122844)
(0.400644 0 -0.254069)
(0.780294 7.53807e-18 -0.481853)
(1.17487 -3.56229e-18 -0.707355)
(1.54499 -3.37915e-18 -0.927347)
(2.04435 -3.17729e-18 -1.2018)
(2.19643 0 -1.29796)
(2.8412 0 -1.6539)
(2.71405 -1.05651e-17 -1.59149)
(3.58104 4.93502e-18 -2.08016)
(3.26042 4.62278e-18 -1.91604)
(4.59116 -4.30941e-18 -2.68618)
(36.5384 0 -3.24202)
(36.966 3.54197e-20 -3.47539)
(36.9255 0 -4.23366)
(35.8286 0 -5.3141)
(33.5621 0 -6.31683)
(30.4156 0 -6.94318)
(26.8226 0 -7.0995)
(23.168 3.02077e-20 -6.85053)
(19.7145 3.3138e-20 -6.32817)
(16.6021 7.25128e-20 -5.66198)
(13.8763 -7.74604e-20 -4.94806)
(11.5264 -8.16051e-20 -4.24578)
(9.51578 -8.44838e-20 -3.5867)
(7.8005 0 -2.98497)
(6.33839 0 -2.44465)
(5.09089 -1.7619e-19 -1.96564)
(4.02735 -1.76385e-19 -1.54156)
(3.12026 0 -1.17213)
(2.34658 8.72547e-20 -0.848993)
(1.68758 1.72352e-19 -0.569981)
(1.12703 0 -0.328626)
(0.651995 1.66121e-19 -0.121926)
(0.250593 0 0.0545702)
(-0.0864911 -3.39837e-22 0.203725)
(-0.367814 -1.55089e-19 0.329117)
(-0.600791 -2.58548e-22 0.432725)
(-0.79105 0 0.518114)
(-0.945094 1.42628e-19 0.587036)
(-1.06716 -2.76093e-19 0.64138)
(-1.16182 -5.3483e-19 0.683158)
(-1.23244 -2.58443e-19 0.714313)
(-1.28264 0 0.736633)
(-1.31616 -2.40904e-19 0.749448)
(-1.33479 0 0.754241)
(-1.34157 0 0.752128)
(-1.33722 0 0.746573)
(-1.32421 0 0.73696)
(-1.30414 0 0.724079)
(-1.27822 1.59673e-22 0.708497)
(-1.24758 -3.67736e-19 0.690711)
(-1.21329 0 0.671201)
(-1.17607 -6.76859e-19 0.650159)
(-1.13633 0 0.627789)
(-1.09464 0 0.604502)
(-1.05162 0 0.580731)
(-1.00823 5.70175e-19 0.557272)
(-0.96605 0 0.535217)
(-0.927116 0 0.51585)
(-0.893704 0 0.500208)
(-0.867075 0 0.488341)
(-0.846436 9.10979e-19 0.478552)
(-0.826931 0 0.466119)
(-0.797763 0 0.442839)
(-0.741549 3.96718e-19 0.397403)
(-0.636282 0 0.318113)
(-0.464721 0 0.20013)
(-0.227927 1.37587e-18 0.0540644)
(0.0350829 -6.54293e-19 -0.0882559)
(0.249951 0 -0.182953)
(0.342825 0 -0.202553)
(0.314409 0 -0.161599)
(0.2012 -5.31441e-19 -0.0755704)
(-0.0154073 0 0.0882988)
(-0.453359 0 0.396091)
(-1.11212 -1.80031e-18 0.826693)
(-1.94481 1.70472e-18 1.29694)
(-2.50792 0 1.51136)
(-2.43717 0 1.23599)
(-1.14835 0 0.209497)
(0.831137 7.39466e-19 -1.53791)
(7.65038 -6.30959e-19 -4.93915)
(7.09795 -1.03478e-18 -3.33566)
(2.89082 -1.01131e-18 -1.17411)
(1.95718 -9.62831e-19 -1.11566)
(2.35107 9.04783e-19 -1.47638)
(3.0783 0 -1.84186)
(2.49803 0 -1.11075)
(-1.42798 6.36359e-19 1.76464)
(-8.39809 0 6.12203)
(-14.7416 0 9.50483)
(-17.6049 0 10.4842)
(-17.0221 0 9.56939)
(-14.0634 0 7.36206)
(-9.48804 -3.68792e-18 4.55072)
(-5.01841 0 2.16278)
(-1.82645 -2.00275e-18 0.558167)
(0.523048 0 -0.604793)
(1.91141 -3.02405e-22 -1.24129)
(2.45202 3.46906e-18 -1.44914)
(2.48593 0 -1.40614)
(2.20313 0 -1.24213)
(2.17231 0 -1.2692)
(2.43736 0 -1.43438)
(2.41394 2.52142e-18 -1.33637)
(1.36376 0 -0.600991)
(-0.3321 0 0.404488)
(-1.53918 0 0.98186)
(-1.52068 0 0.841914)
(-0.954317 0 0.468654)
(-0.357605 0 0.139668)
(-0.000510831 0 -0.0424242)
(0.275942 0 -0.182386)
(0.351565 -2.86405e-18 -0.210915)
(0.405704 0 -0.23052)
(0.315612 0 -0.169503)
(0.242018 0 -0.127271)
(0.193721 4.41611e-18 -0.102877)
(0.220925 0 -0.132294)
(0.441969 3.92142e-18 -0.275026)
(0.733086 0 -0.456842)
(1.1925 -1.01294e-21 -0.734937)
(1.68624 0 -1.01559)
(2.12367 3.154e-18 -1.27782)
(2.73449 0 -1.60948)
(2.91029 0 -1.72409)
(3.70057 0 -2.1557)
(3.53919 4.93157e-18 -2.07972)
(4.60148 -9.21398e-18 -2.67499)
(4.20479 -8.63072e-18 -2.47716)
(5.77214 -4.02252e-18 -3.38651)
(36.1762 0 -3.52489)
(36.4597 -3.83744e-20 -3.70629)
(36.7515 0 -4.15484)
(36.5909 0 -4.91095)
(35.6456 -2.8544e-20 -5.80282)
(33.8611 -2.75836e-20 -6.58858)
(31.3808 2.81939e-20 -7.09234)
(28.4368 -8.81599e-20 -7.24851)
(25.2755 0 -7.08204)
(22.1092 1.35234e-22 -6.6683)
(19.0913 3.63827e-20 -6.09561)
(16.313 0 -5.44144)
(13.8146 0 -4.76314)
(11.602 0 -4.09866)
(9.66153 0 -3.47031)
(7.96969 4.23873e-22 -2.89083)
(6.50117 3.8223e-22 -2.36299)
(5.23046 8.22718e-20 -1.89053)
(4.13325 8.1634e-20 -1.46956)
(3.1883 0 -1.09891)
(2.37635 -1.58979e-19 -0.773634)
(1.6811 -1.56568e-19 -0.490726)
(1.08768 0 -0.245979)
(0.583995 -3.17951e-22 -0.0355042)
(0.158036 2.78958e-22 0.143656)
(-0.199237 -1.42287e-19 0.29507)
(-0.496272 0 0.421599)
(-0.741597 0 0.526263)
(-0.941104 2.60134e-19 0.611487)
(-1.10112 2.82742e-22 0.679717)
(-1.22682 4.86701e-19 0.732813)
(-1.32285 0 0.772879)
(-1.39306 4.53647e-19 0.802584)
(-1.44206 0 0.822087)
(-1.47272 0 0.831669)
(-1.48835 -2.0276e-19 0.832252)
(-1.49049 0 0.828557)
(-1.48159 -3.74999e-19 0.820245)
(-1.46369 1.55085e-22 0.807741)
(-1.4383 3.45922e-19 0.791956)
(-1.40697 0 0.773471)
(-1.37083 1.00699e-22 0.752586)
(-1.33057 0 0.729632)
(-1.28704 0 0.705183)
(-1.24111 0 0.679827)
(-1.19396 0 0.654572)
(-1.14747 0 0.630741)
(-1.10398 4.90683e-19 0.609839)
(-1.06613 0 0.592996)
(-1.03543 0 0.580103)
(-1.01106 -4.28267e-19 0.568939)
(-0.987673 0 0.553702)
(-0.953196 -3.90506e-19 0.524609)
(-0.8882 -3.72791e-19 0.468542)
(-0.767992 7.115e-19 0.37254)
(-0.572792 0 0.232212)
(-0.30228 -6.46355e-19 0.0613666)
(0.0023794 -6.1469e-19 -0.102297)
(0.258613 0 -0.208556)
(0.377439 0 -0.226643)
(0.348873 0 -0.172241)
(0.209685 4.98989e-19 -0.0595757)
(-0.059143 0 0.152887)
(-0.585422 0 0.535537)
(-1.35441 8.44949e-19 1.04869)
(-2.29368 -1.5996e-18 1.57191)
(-2.89663 0 1.75936)
(-2.79615 0 1.37014)
(-1.36604 0 0.178781)
(0.595175 0 -1.81087)
(7.71112 -5.9456e-19 -5.27412)
(8.16687 9.70186e-19 -3.73176)
(3.66091 0 -1.392)
(2.38445 0 -1.33054)
(2.7359 -8.47966e-19 -1.73772)
(3.42647 0 -2.04199)
(2.44702 -7.21535e-19 -0.881828)
(-2.43129 6.02909e-19 2.78514)
(-10.3868 0 7.78444)
(-16.9343 0 11.1041)
(-19.3485 0 11.5464)
(-18.2779 0 10.1385)
(-14.9944 0 7.61368)
(-10.1558 1.72116e-18 4.60611)
(-5.4 0 2.11421)
(-1.92322 3.74585e-18 0.42362)
(0.670868 0 -0.814462)
(2.27525 -3.16152e-22 -1.51296)
(2.93294 4.89852e-23 -1.7436)
(2.99506 0 -1.68891)
(2.68735 2.85211e-18 -1.50877)
(2.63645 0 -1.53989)
(2.87519 0 -1.69044)
(2.75026 -4.71588e-18 -1.49493)
(1.49216 0 -0.593149)
(-0.392707 0 0.521699)
(-1.65672 0 1.0814)
(-1.58186 0 0.858465)
(-0.950943 0 0.433763)
(-0.283287 0 0.0708355)
(0.106928 0 -0.120896)
(0.421617 0 -0.27511)
(0.499453 2.67573e-18 -0.298991)
(0.572805 0 -0.325568)
(0.478859 0 -0.259188)
(0.432018 0 -0.233577)
(0.405967 -4.12365e-18 -0.224812)
(0.491855 -3.87793e-18 -0.294933)
(0.770041 -3.6603e-18 -0.476802)
(1.15065 3.46113e-18 -0.714974)
(1.68183 -9.9009e-22 -1.03902)
(2.27748 -3.10362e-18 -1.37604)
(2.77549 -5.88896e-18 -1.67657)
(3.49885 0 -2.0643)
(3.69627 5.22903e-18 -2.19686)
(4.63037 4.89666e-18 -2.70095)
(4.43894 0 -2.61504)
(5.68519 4.3004e-18 -3.30876)
(5.22643 4.02806e-18 -3.0862)
(6.98642 3.75462e-18 -4.10975)
(35.8928 0 -3.68225)
(36.0422 1.90964e-20 -3.87374)
(36.3045 0 -4.18774)
(36.4546 0 -4.70251)
(36.2277 2.68788e-20 -5.38573)
(35.4518 2.59692e-20 -6.11476)
(34.0712 -2.65388e-20 -6.74566)
(32.1301 8.61329e-20 -7.16828)
(29.7424 0 -7.32997)
(27.057 3.31029e-20 -7.23315)
(24.2279 -6.84479e-20 -6.91755)
(21.3919 0 -6.43978)
(18.6554 7.35759e-20 -5.85777)
(16.0904 0 -5.22206)
(13.7376 7.64918e-20 -4.57161)
(11.6132 7.75485e-20 -3.93508)
(9.71695 7.76987e-20 -3.32906)
(8.03916 -7.74406e-20 -2.76624)
(6.56403 -1.53396e-19 -2.25073)
(5.27411 0 -1.78555)
(4.15118 1.49645e-19 -1.36938)
(3.17812 0 -1.00082)
(2.33847 0 -0.676907)
(1.61769 -1.40757e-19 -0.394337)
(1.00169 2.74344e-19 -0.150245)
(0.479047 0 0.0599975)
(0.038157 0 0.237985)
(-0.330943 0 0.388131)
(-0.636788 -2.44192e-19 0.512951)
(-0.887565 2.36686e-19 0.615521)
(-1.09022 -2.36354e-22 0.698262)
(-1.25109 2.20855e-19 0.763797)
(-1.37609 -4.26456e-19 0.813969)
(-1.46976 2.05509e-19 0.851387)
(-1.53693 -1.97983e-19 0.878501)
(-1.58237 1.26464e-22 0.893179)
(-1.60883 0 0.898083)
(-1.61952 3.5269e-19 0.896723)
(-1.61639 3.38814e-19 0.890303)
(-1.60217 -3.2529e-19 0.878842)
(-1.57884 0 0.863517)
(-1.54809 2.99347e-19 0.844685)
(-1.511 2.86855e-19 0.82282)
(-1.4688 2.7484e-19 0.798695)
(-1.42268 2.63202e-19 0.773075)
(-1.37409 0 0.747205)
(-1.32519 0 0.722645)
(-1.27865 -7.43167e-23 0.701118)
(-1.23744 0 0.683819)
(-1.20334 0 0.670443)
(-1.17562 -4.02204e-19 0.658192)
(-1.14859 3.84086e-19 0.640158)
(-1.10932 3.66755e-19 0.605026)
(-1.03682 5.28658e-23 0.538038)
(-0.904315 -9.62387e-23 0.425304)
(-0.689751 0 0.263259)
(-0.390839 0 0.0691522)
(-0.0489155 1.15396e-18 -0.11364)
(0.247837 0 -0.229086)
(0.395666 0 -0.2435)
(0.37 -4.93611e-19 -0.173097)
(0.204826 0 -0.0297052)
(-0.118174 0 0.237159)
(-0.731481 8.39393e-19 0.698481)
(-1.60157 -7.92839e-19 1.29056)
(-2.62756 1.49976e-18 1.85098)
(-3.25367 0 1.99127)
(-3.12856 -6.91133e-19 1.4765)
(-1.61626 0 0.15176)
(0.337827 0 -2.1021)
(7.18105 1.11525e-18 -5.35225)
(9.03809 0 -4.0458)
(4.45351 0 -1.58246)
(2.83016 0 -1.53576)
(3.09739 0 -1.98226)
(3.67932 0 -2.16636)
(2.22516 6.75654e-19 -0.484847)
(-3.5939 2.71285e-21 4.0011)
(-12.3214 -4.14934e-19 9.4893)
(-18.7177 3.12531e-19 12.4735)
(-20.5354 0 12.2585)
(-19.0601 0 10.4086)
(-15.6041 0 7.64923)
(-10.6275 0 4.51242)
(-5.68759 0 1.9766)
(-1.98437 -2.75065e-21 0.239316)
(0.805727 0 -1.0397)
(2.61667 -1.60856e-18 -1.78674)
(3.40764 2.67152e-23 -2.04056)
(3.51623 0 -1.97785)
(3.19526 -2.66666e-18 -1.78621)
(3.11526 0 -1.8167)
(3.30231 2.36071e-18 -1.93602)
(3.05958 -9.40463e-22 -1.62694)
(1.61187 0 -0.564309)
(-0.415394 0 0.628848)
(-1.70183 0 1.14158)
(-1.57154 0 0.831195)
(-0.892367 3.13137e-18 0.362446)
(-0.162803 0 -0.0282082)
(0.25244 0 -0.223504)
(0.604577 2.65993e-18 -0.390378)
(0.683022 0 -0.407893)
(0.783184 -2.34269e-18 -0.44488)
(0.689185 2.19318e-18 -0.375887)
(0.683613 0 -0.375675)
(0.682511 7.70129e-18 -0.384003)
(0.840511 7.80678e-22 -0.503475)
(1.16878 6.83472e-18 -0.721356)
(1.64607 -3.23171e-18 -1.02017)
(2.23755 -3.0666e-18 -1.38458)
(2.93879 2.89763e-18 -1.77902)
(3.48918 2.7486e-18 -2.11434)
(4.32721 2.58377e-18 -2.55743)
(4.54488 -4.88139e-18 -2.7088)
(5.61826 -4.57095e-18 -3.28064)
(5.40595 -4.29583e-18 -3.1917)
(6.81549 -4.01335e-18 -3.97076)
(6.31764 0 -3.73751)
(8.21804 0 -4.8461)
(35.633 0 -3.77862)
(35.7105 2.10337e-20 -3.97629)
(35.8854 0 -4.23824)
(36.0627 0 -4.61284)
(36.1007 0 -5.11472)
(35.8634 0 -5.70606)
(35.2445 3.05122e-20 -6.30722)
(34.1846 -2.81593e-20 -6.82678)
(32.678 3.06477e-20 -7.19064)
(30.7671 -6.14198e-20 -7.3571)
(28.5301 6.43458e-20 -7.31734)
(26.0658 0 -7.0882)
(23.4791 -6.91637e-20 -6.70237)
(20.8689 0 -6.19997)
(18.3195 -7.19075e-20 -5.6211)
(15.8945 -7.21232e-20 -5.00277)
(13.6362 0 -4.37373)
(11.5683 0 -3.75773)
(9.69913 7.19746e-20 -3.16991)
(8.02728 0 -2.62115)
(6.54439 0 -2.11675)
(5.23874 -1.37465e-19 -1.65955)
(4.09643 0 -1.24975)
(3.1033 0 -0.885942)
(2.24477 -1.28842e-19 -0.566359)
(1.50744 0 -0.287389)
(0.878299 0 -0.0469054)
(0.345049 0 0.159111)
(-0.10318 4.58814e-19 0.333432)
(-0.476618 0 0.479521)
(-0.784461 -2.20984e-22 0.600134)
(-1.03488 -1.92478e-22 0.698496)
(-1.23559 2.00322e-19 0.777128)
(-1.39325 -1.93139e-19 0.838331)
(-1.5139 3.71989e-19 0.884353)
(-1.60223 1.79106e-19 0.919144)
(-1.66486 0 0.940057)
(-1.70445 0 0.950424)
(-1.72554 3.1804e-19 0.951828)
(-1.72984 -3.05341e-19 0.94797)
(-1.7209 0 0.938338)
(-1.70102 0 0.92377)
(-1.67181 -8.26585e-23 0.904973)
(-1.63497 -2.58117e-19 0.882928)
(-1.59211 -2.47167e-19 0.858601)
(-1.545 -4.73033e-19 0.833498)
(-1.49613 0 0.809423)
(-1.44846 -7.25515e-23 0.788316)
(-1.40531 0 0.771419)
(-1.36878 0 0.758196)
(-1.3383 3.77501e-19 0.745249)
(-1.30816 -3.60462e-19 0.72457)
(-1.26492 0 0.683391)
(-1.18669 3.28434e-19 0.605525)
(-1.0452 -9.83415e-23 0.476477)
(-0.816431 0 0.293818)
(-0.495494 0 0.0783528)
(-0.121813 -1.08235e-18 -0.121132)
(0.213759 0 -0.243285)
(0.393621 0 -0.251685)
(0.374678 9.25711e-19 -0.162437)
(0.184668 0 0.0160973)
(-0.193091 0 0.342613)
(-0.889827 -1.57385e-18 0.885092)
(-1.84926 7.43064e-19 1.5501)
(-2.94148 -7.02662e-19 2.13073)
(-3.5784 0 2.20662)
(-3.44142 6.47542e-19 1.56177)
(-1.91728 0 0.138682)
(0.0742265 -6.07855e-19 -2.39373)
(6.10117 -5.22692e-19 -5.19672)
(9.66576 0 -4.28815)
(5.23443 0 -1.73288)
(3.28687 7.92886e-19 -1.72328)
(3.43375 7.44355e-19 -2.20294)
(3.82668 0 -2.20597)
(1.83908 0 0.0856003)
(-4.86589 -1.06357e-18 5.3872)
(-14.1153 3.88277e-19 11.1714)
(-20.0336 -5.80819e-19 13.561)
(-21.2484 0 12.6636)
(-19.5058 0 10.4529)
(-16.0047 0 7.53545)
(-10.9725 0 4.31148)
(-5.91539 0 1.77023)
(-2.02741 -2.88469e-21 0.0153456)
(0.916284 0 -1.27485)
(2.92354 0 -2.05792)
(3.86647 -7.97932e-24 -2.3367)
(4.04513 0 -2.27164)
(3.72531 -2.49271e-18 -2.07333)
(3.60779 0 -2.09768)
(3.72003 -2.20624e-18 -2.17008)
(3.35018 -9.35959e-22 -1.73518)