/*--------------------------------*- C++ -*----------------------------------*\
| =========                 |                                                 |
| \\      /  F ield         | OpenFOAM: The Open Source CFD Toolbox           |
|  \\    /   O peration     | Version:  2412                                  |
|   \\  /    A nd           | Website:  www.openfoam.com                      |
|    \\/     M anipulation  |                                                 |
\*---------------------------------------------------------------------------*/
FoamFile
{
    version     2.0;
    format      ascii;
    arch        "LSB;label=32;scalar=64";
    class       surfaceScalarField;
    location    "0.665";
    object      phi_0;
}
// * * * * * * * * * * * * * * * * * * * * * * * * * * * * * * * * * * * * * //

dimensions      [0 3 -1 0 0 0 0];

oriented        oriented;

internalField   nonuniform List<scalar> 
24930
(
0.0158104
0.0209665
-0.0367813
0.00652928
0.00928109
0.00302238
0.00350691
0.00170364
0.00131874
0.00110356
0.000600085
0.000751968
0.000351595
0.000514845
0.000237129
0.000344307
0.000170545
0.000217373
0.000126945
0.000121024
9.63595e-05
4.60545e-05
7.49756e-05
-1.25193e-05
5.85778e-05
-5.85885e-05
4.60809e-05
-9.49295e-05
3.63608e-05
-0.000122958
2.80378e-05
-0.000145062
2.20996e-05
-0.000161798
1.67558e-05
-0.000174469
1.27172e-05
-0.000183343
8.84723e-06
-0.000189563
6.11328e-06
-0.000193246
3.77599e-06
-0.000194796
1.9126e-06
-0.000194677
-2.03075e-07
-0.000193206
-2.05025e-06
-0.000190542
-2.636e-06
-0.000186993
-3.0654e-06
-0.000182653
-4.16472e-06
-0.000177615
-5.18213e-06
-0.000172118
-5.48086e-06
-0.000166339
-5.72573e-06
-0.00016031
-6.03636e-06
-0.000154093
-6.21914e-06
-0.000147775
-6.30035e-06
-0.000141421
-6.34882e-06
-0.00013511
-6.32213e-06
-0.000128861
-6.25726e-06
-0.000122717
-6.14315e-06
-0.000116719
-5.99746e-06
-0.000110891
-5.83404e-06
-0.000105285
-5.61545e-06
-9.9899e-05
-5.39437e-06
-9.47258e-05
-5.18058e-06
-8.97666e-05
-4.96689e-06
-8.50057e-05
-4.76916e-06
-8.04015e-05
-4.61251e-06
-7.59634e-05
-4.44615e-06
-7.16882e-05
-4.28314e-06
-6.76288e-05
-4.06689e-06
-6.38617e-05
-3.77334e-06
-6.05003e-05
-3.36566e-06
-5.76943e-05
-2.8078e-06
-5.55941e-05
-2.09976e-06
-5.43438e-05
-1.24753e-06
-5.40517e-05
-2.9261e-07
-5.47159e-05
6.64616e-07
-5.62167e-05
1.50122e-06
-5.81287e-05
1.91152e-06
-5.96031e-05
1.47827e-06
-5.92957e-05
-2.98557e-07
-5.52972e-05
-3.99463e-06
-4.53164e-05
-9.98072e-06
-2.72495e-05
-1.80702e-05
2.01172e-07
-2.7457e-05
3.49883e-05
-3.47923e-05
7.42632e-05
-3.92828e-05
0.000111134
-3.68812e-05
0.000137551
-2.64237e-05
0.000148925
-1.13753e-05
0.000146618
2.28518e-06
0.000136009
1.05913e-05
0.000121581
1.4426e-05
0.000106874
1.47277e-05
9.24975e-05
1.43923e-05
8.45775e-05
7.86931e-06
8.04092e-05
4.05437e-06
7.05254e-05
9.8531e-06
3.8001e-05
3.25938e-05
-3.95453e-05
7.75939e-05
-0.000184687
0.000145137
-0.000396816
0.000212124
-0.000619726
0.000222886
-0.000695008
7.53781e-05
-0.000537029
-0.000157912
-0.000104114
-0.000432995
0.00118179
-0.00128599
0.00137044
-0.000188309
0.00208488
-0.000714151
0.00329302
-0.00120834
0.00101866
0.00227415
-0.000169365
0.00118822
-2.33333e-05
-0.000145978
-4.47559e-05
2.16327e-05
0.000397843
-0.000442641
0.000646545
-0.000248775
0.000804147
-0.000157618
0.00082439
-2.01148e-05
8.03896e-05
0.000743997
-0.00149399
0.00157435
-0.00341472
0.00192073
-0.00495247
0.00153778
-0.0056827
0.000730437
-0.00557919
-0.000103296
-0.00479834
-0.000780972
-0.0035805
-0.00121797
-0.00196705
-0.00161347
-0.000755143
-0.00121188
-0.000419891
-0.00033523
-3.5979e-06
-0.000416315
0.000390943
-0.000394554
0.00069884
-0.000307916
0.00101779
-0.000318963
0.00099538
2.24194e-05
0.000540425
0.000454965
-0.000149413
0.000689855
-0.000539322
0.000389922
-0.000293941
-0.000245384
0.000213131
-0.000507065
0.000478301
-0.000265156
0.000743338
-0.000265029
-0.000186279
0.03342
0.0298762
-0.0423298
0.0224668
0.0202343
0.014236
0.0117377
0.00917125
0.00638354
0.00619444
0.0035769
0.0043645
0.00218154
0.00314757
0.00145407
0.00228436
0.00103376
0.00164512
0.000766199
0.0011573
0.000584198
0.00077829
0.000454002
0.00047952
0.000357361
0.000242202
0.000283424
5.44213e-05
0.000224175
-0.000101232
0.000183703
-0.00022719
0.000148034
-0.000326801
0.000116375
-0.000405676
9.17006e-05
-0.000466727
6.99959e-05
-0.000513732
5.30154e-05
-0.000548546
3.8426e-05
-0.000572993
2.65607e-05
-0.000588926
1.59925e-05
-0.000597844
6.79954e-06
-0.000600828
1.26416e-07
-0.000598978
-4.95506e-06
-0.000592897
-1.02309e-05
-0.000583345
-1.47831e-05
-0.000571077
-1.76912e-05
-0.000556656
-2.01761e-05
-0.000540502
-2.22202e-05
-0.000523023
-2.36733e-05
-0.000504557
-2.47451e-05
-0.000485394
-2.55159e-05
-0.00046588
-2.58399e-05
-0.000446203
-2.59315e-05
-0.000426549
-2.57973e-05
-0.000407103
-2.54508e-05
-0.000388004
-2.49405e-05
-0.000369448
-2.41767e-05
-0.000351475
-2.33752e-05
-0.000334092
-2.25751e-05
-0.000317326
-2.17456e-05
-0.000301144
-2.09646e-05
-0.000285438
-2.03314e-05
-0.000270235
-1.96636e-05
-0.000255558
-1.89742e-05
-0.000241583
-1.80538e-05
-0.000228592
-1.67763e-05
-0.000216977
-1.49908e-05
-0.000207251
-1.25419e-05
-0.000199933
-9.42539e-06
-0.000195513
-5.67316e-06
-0.000194318
-1.48982e-06
-0.000196341
2.68747e-06
-0.000201072
6.23263e-06
-0.000206965
7.80606e-06
-0.000211012
5.52475e-06
-0.000208515
-2.79695e-06
-0.000192953
-1.95593e-05
-0.000156378
-4.65571e-05
-9.18083e-05
-8.264e-05
4.72455e-06
-0.00012399
0.000126929
-0.000156996
0.000264543
-0.000176901
0.000393875
-0.000166219
0.000487819
-0.000120374
0.000529522
-5.30832e-05
0.000522314
9.49941e-06
0.000483327
4.95837e-05
0.000429036
6.87031e-05
0.000371643
7.20843e-05
0.000317229
6.87771e-05
0.000283768
4.13512e-05
0.000264272
2.35703e-05
0.000222338
5.17797e-05
9.82283e-05
0.000156626
-0.000185467
0.000361247
-0.000698675
0.000658349
-0.00142334
0.000936797
-0.00215384
0.0009534
-0.00235688
0.000278338
-0.00174363
-0.000771151
-0.000285574
-0.00189103
0.00381308
-0.00538465
0.00448449
-0.000859952
0.00688793
-0.00311771
0.0109197
-0.00523998
0.00393078
0.009263
-0.000267039
0.00538607
-6.00621e-05
-0.000353049
-4.21271e-05
3.7353e-06
0.00139061
-0.0018753
0.00225202
-0.00111013
0.00271075
-0.000616368
0.00243688
0.000253646
-0.000494515
0.00367535
-0.00601332
0.00709316
-0.0121969
0.0081043
-0.0167661
0.00610697
-0.0185645
0.00252871
-0.0178286
-0.000839228
-0.015121
-0.0034885
-0.011241
-0.00509788
-0.00624172
-0.00661274
-0.00228199
-0.00517162
-0.00112972
-0.00148753
0.000199998
-0.00174602
0.00155129
-0.00174583
0.00255434
-0.00131097
0.00350865
-0.00127328
0.00326321
0.000267853
0.00157483
0.00214333
-0.000601098
0.00286577
-0.00160427
0.00139309
-0.000659522
-0.00119012
0.000952169
-0.00211876
0.00184624
-0.00115923
0.00267468
-0.00109347
-0.000833847
0.0431815
0.0321475
-0.0454528
0.0358993
0.0275165
0.0273321
0.0203049
0.019932
0.0137836
0.0144454
0.00906353
0.0105986
0.00602841
0.00789198
0.00416069
0.0059305
0.00299526
0.00446195
0.00223476
0.0033331
0.00171305
0.00244788
0.00133924
0.00174363
0.00106164
0.00117749
0.000849592
0.000719158
0.000682525
0.000348113
0.000554742
4.78446e-05
0.000448302
-0.000199617
0.000363888
-0.000399644
0.000291804
-0.000559728
0.000230103
-0.000687169
0.000180427
-0.000786819
0.000137989
-0.000863033
0.000102548
-0.000919621
7.27005e-05
-0.000959343
4.71054e-05
-0.000984836
2.56008e-05
-0.000998527
8.42724e-06
-0.00100253
-6.31214e-06
-0.000998506
-1.87164e-05
-0.000987509
-2.86358e-05
-0.000970904
-3.68369e-05
-0.000949745
-4.33878e-05
-0.000924977
-4.84088e-05
-0.000897366
-5.23427e-05
-0.000867575
-5.53123e-05
-0.000836348
-5.70688e-05
-0.000804164
-5.8113e-05
-0.000771449
-5.85123e-05
-0.000738616
-5.82898e-05
-0.000705994
-5.75705e-05
-0.000673978
-5.62019e-05
-0.000642721
-5.46425e-05
-0.000612278
-5.30303e-05
-0.000582737
-5.13007e-05
-0.000554075
-4.96418e-05
-0.000526147
-4.82746e-05
-0.000499007
-4.68182e-05
-0.000472737
-4.52594e-05
-0.00044766
-4.31451e-05
-0.000424295
-4.01537e-05
-0.000403358
-3.59391e-05
-0.000385769
-3.01398e-05
-0.000372459
-2.27433e-05
-0.000364284
-1.38537e-05
-0.000361818
-3.95859e-06
-0.000364979
5.8471e-06
-0.000372757
1.40113e-05
-0.000382264
1.7315e-05
-0.000388005
1.12655e-05
-0.000381535
-9.26941e-06
-0.000351045
-5.00495e-05
-0.000282523
-0.000115079
-0.000163739
-0.000201424
1.15651e-05
-0.000299294
0.000235054
-0.000380485
0.000485538
-0.000427389
0.000721662
-0.000402345
0.000895184
-0.0002939
0.000974416
-0.000132319
0.000963018
2.08977e-05
0.000890043
0.000122553
0.000786021
0.000172713
0.000674169
0.000183923
0.000568899
0.000174039
0.000501095
0.000109157
0.000459011
6.5673e-05
0.000373895
0.000136881
0.000135525
0.000394973
-0.000397656
0.000894415
-0.00134138
0.00160206
-0.00263687
0.00223228
-0.00389803
0.00221457
-0.00419017
0.000570436
-0.00297395
-0.00198738
-0.000503571
-0.00436145
0.00654399
-0.0124322
0.0077455
-0.00206153
0.0118249
-0.00719713
0.0191344
-0.0125495
0.00764834
0.020749
6.31889e-06
0.0130281
-5.97407e-05
-0.000287018
3.43174e-05
-9.04835e-05
0.00255108
-0.00439203
0.00406307
-0.00262211
0.00475207
-0.00130539
0.00381087
0.00119478
-0.00189713
0.00938335
-0.0119423
0.0171383
-0.0224358
0.0185979
-0.0295972
0.0132683
-0.0318979
0.00482936
-0.0301221
-0.00261501
-0.0252871
-0.00832357
-0.0187659
-0.011619
-0.010398
-0.0149806
-0.00365787
-0.0119118
-0.00167238
-0.00347303
0.000610884
-0.00402927
0.00304154
-0.00417649
0.00479169
-0.00306113
0.00631979
-0.00280138
0.00566624
0.000921397
0.00254181
0.00526776
-0.00112748
0.00653505
-0.00254214
0.00280776
-0.000751098
-0.00298117
0.0020015
-0.00487136
0.00357465
-0.00273238
0.00499183
-0.00251065
-0.00198747
0.0489932
0.0316452
-0.0484909
0.0457526
0.0307571
0.0394702
0.0265873
0.0321156
0.0211382
0.0252524
0.0159267
0.0195793
0.0117015
0.0151497
0.00859028
0.011744
0.006401
0.00911007
0.00486872
0.0070462
0.00377694
0.00540676
0.00297868
0.00408906
0.00237936
0.00302003
0.00191865
0.00214671
0.00155586
0.00143151
0.00126994
0.000843421
0.00103639
0.00036059
0.000846783
-3.39414e-05
0.000686395
-0.000360852
0.000556993
-0.000625071
0.000444614
-0.000837317
0.000350274
-0.00100561
0.000270859
-0.00113677
0.000203963
-0.00123638
0.000146937
-0.00130965
9.87095e-05
-0.00136031
5.85203e-05
-0.00139137
2.46859e-05
-0.00140611
-3.83305e-06
-0.00140859
-2.61552e-05
-0.00139968
-4.58012e-05
-0.0013814
-6.16575e-05
-0.00135562
-7.41563e-05
-0.00132377
-8.41778e-05
-0.0012871
-9.19876e-05
-0.00124693
-9.72395e-05
-0.0012042
-0.000100846
-0.0011597
-0.000103012
-0.00111419
-0.000103801
-0.0010683
-0.000103472
-0.0010227
-0.000101811
-0.000977738
-9.96179e-05
-0.000933578
-9.72036e-05
-0.000890418
-9.44757e-05
-0.000848291
-9.17841e-05
-0.000807046
-8.95354e-05
-0.000766795
-8.70862e-05
-0.000727701
-8.43689e-05
-0.000690267
-8.05942e-05
-0.00065529
-7.51438e-05
-0.000623852
-6.73895e-05
-0.00059733
-5.66718e-05
-0.000577112
-4.29688e-05
-0.000564458
-2.65141e-05
-0.000560188
-8.23198e-06
-0.000564118
9.77568e-06
-0.000574609
2.45035e-05
-0.000587217
2.99247e-05
-0.000593649
1.76975e-05
-0.000581248
-2.16705e-05
-0.000532406
-9.88912e-05
-0.000426417
-0.000221069
-0.000245419
-0.000382423
1.9503e-05
-0.000564218
0.00035693
-0.000717913
0.000735285
-0.000805747
0.00109395
-0.000761009
0.00136127
-0.000561229
0.00148745
-0.000258501
0.00147409
3.42607e-05
0.00136203
0.000234605
0.00119789
0.000336842
0.00101901
0.000362791
0.000851061
0.000341976
0.000739397
0.000220821
0.000666751
0.000138327
0.000525597
0.000278019
0.000145058
0.00077549
-0.000685708
0.00172517
-0.00212374
0.00304009
-0.00404778
0.0041563
-0.00585976
0.00402656
-0.00619567
0.000906297
-0.00421679
-0.00396626
-0.000768221
-0.00781008
0.00930696
-0.0225073
0.0112274
-0.00398199
0.0166777
-0.0126475
0.0276837
-0.0235554
0.0122523
0.0361805
0.000714072
0.0245663
4.05395e-06
0.000422827
0.000190123
-0.000276535
0.00389174
-0.00809361
0.00606943
-0.0047998
0.00687646
-0.00211245
0.00480452
0.00326669
-0.00438301
0.0185709
-0.0193786
0.0321339
-0.0340199
0.0332391
-0.0431557
0.0224041
-0.0453123
0.0069859
-0.0421339
-0.00579347
-0.0350495
-0.0154079
-0.0259843
-0.0206842
-0.0143743
-0.0265906
-0.00480418
-0.0214819
-0.00200446
-0.00627274
0.00127371
-0.00730744
0.00488935
-0.00779212
0.00743076
-0.00560255
0.00945525
-0.00482588
0.0081931
0.00218354
0.00344523
0.0100156
-0.00166153
0.0116418
-0.00325795
0.00440417
-0.000482071
-0.00575705
0.00341395
-0.00876737
0.00570739
-0.00502581
0.00773804
-0.0045413
-0.00368035
0.0528151
0.0305004
-0.0516703
0.0522346
0.0313376
0.0489098
0.0299121
0.0434315
0.0266166
0.03697
0.0223881
0.0305692
0.0181024
0.0248392
0.0143202
0.0199926
0.0112477
0.0160031
0.00885815
0.0127494
0.00703072
0.0100952
0.00563286
0.00792163
0.00455295
0.00613306
0.00370726
0.00465467
0.00303426
0.00342991
0.0024947
0.00241262
0.0020537
0.00156774
0.00169173
0.000865986
0.00138819
0.00028594
0.00113702
-0.000192482
0.000923041
-0.000585321
0.000743183
-0.000903852
0.000589428
-0.00115934
0.000459496
-0.00136101
0.000348552
-0.00151695
0.000254594
-0.00163387
0.000175441
-0.00171833
0.000109248
-0.00177545
5.35547e-05
-0.00180676
5.13845e-06
-0.0018204
-3.21864e-05
-0.00181757
-6.44623e-05
-0.00180082
-9.0879e-05
-0.00177283
-0.000112161
-0.00173571
-0.000129111
-0.00169162
-0.000141334
-0.00164217
-0.00015029
-0.00158873
-0.000156451
-0.00153257
-0.000159968
-0.00147473
-0.00016132
-0.00141631
-0.000160246
-0.00135794
-0.000157999
-0.00129999
-0.000155169
-0.00124283
-0.00015165
-0.00118662
-0.000148008
-0.00113125
-0.000144919
-0.00107693
-0.000141421
-0.00102395
-0.000137365
-0.000973027
-0.000131535
-0.000925276
-0.000122908
-0.000882192
-0.000110486
-0.00084566
-9.32144e-05
-0.000817574
-7.10631e-05
-0.000799633
-4.44615e-05
-0.0007929
-1.49688e-05
-0.000797034
1.39081e-05
-0.000809657
3.71263e-05
-0.000824554
4.48221e-05
-0.000830325
2.34689e-05
-0.000809663
-4.23324e-05
-0.000738695
-0.00016986
-0.000589678
-0.000370089
-0.000338749
-0.000633355
2.59133e-05
-0.000928883
0.000489535
-0.00118154
0.00101045
-0.00132666
0.00150791
-0.00125847
0.00188473
-0.000938053
0.00206941
-0.000443187
0.00205812
4.55485e-05
0.00190284
0.000389884
0.00166795
0.000571723
0.00140872
0.000622004
0.00116533
0.000585365
0.000999678
0.000386467
0.000887418
0.000250582
0.000675505
0.000489913
0.000121335
0.00132964
-0.00106103
0.00290752
-0.00306127
0.00504032
-0.00566647
0.00676148
-0.0080333
0.0063934
-0.00834982
0.00122278
-0.00542197
-0.00689412
-0.00107615
-0.012156
0.0120067
-0.0355901
0.0149922
-0.00696748
0.0212193
-0.0188748
0.0361004
-0.0384364
0.0177841
0.0544969
0.00201722
0.0403332
0.000231753
0.00220813
0.000464244
-0.000509026
0.00541289
-0.0130422
0.00825778
-0.00764469
0.00900912
-0.00286383
0.0052659
0.00700992
-0.00809543
0.0319322
-0.0283559
0.0523943
-0.0467226
0.0516058
-0.0570179
0.0326994
-0.0583984
0.00836635
-0.0535679
-0.0106241
-0.044224
-0.0247518
-0.0327766
-0.0321316
-0.018029
-0.0413382
-0.0056853
-0.0338256
-0.0021254
-0.00983264
0.00219377
-0.0116266
0.007106
-0.0127043
0.0104931
-0.00898963
0.0129194
-0.00725223
0.0108475
0.00425547
0.00434755
0.0165156
-0.00212385
0.0181132
-0.00368998
0.0059703
0.000172479
-0.00961951
0.00521399
-0.0138089
0.00828087
-0.00809268
0.0109511
-0.00721149
-0.00594216
0.0559736
0.0295373
-0.0550105
0.0565503
0.0307608
0.0555189
0.0309435
0.0524597
0.0296758
0.0477137
0.0271342
0.0419969
0.0238191
0.0360273
0.0202898
0.0303292
0.0169458
0.0251913
0.013996
0.0207154
0.0115067
0.0168902
0.00945802
0.0136524
0.00779078
0.010923
0.00643672
0.00862508
0.00533217
0.00669211
0.00442767
0.00506608
0.00367974
0.00369957
0.00305829
0.00255207
0.00253571
0.0015917
0.00209739
0.000790135
0.00172464
0.000125243
0.00140814
-0.0004243
0.00113898
-0.000873817
0.000909009
-0.00123747
0.000712166
-0.00152769
0.000544891
-0.00175491
0.000402859
-0.00192826
0.000282745
-0.00205608
0.000181453
-0.00214776
9.67598e-05
-0.0022035
2.35534e-05
-0.0022332
-3.47388e-05
-0.00224108
-8.29743e-05
-0.00222933
-0.000123905
-0.00220176
-0.000156679
-0.00216178
-0.00018132
-0.00211197
-0.000200096
-0.00205452
-0.000213903
-0.00199143
-0.000223061
-0.00192437
-0.000228389
-0.00185501
-0.00022961
-0.00178446
-0.000228569
-0.00171337
-0.000226268
-0.00164242
-0.000222618
-0.00157198
-0.000218466
-0.00150204
-0.000214871
-0.00143298
-0.000210497
-0.00136526
-0.000205104
-0.00129986
-0.000196956
-0.00123826
-0.000184521
-0.00118242
-0.000166336
-0.0011348
-0.000140854
-0.00109782
-0.000108044
-0.00107368
-6.86142e-05
-0.00106367
-2.49808e-05
-0.00106725
1.74853e-05
-0.00108118
5.10581e-05
-0.00109727
6.09133e-05
-0.00110076
2.69621e-05
-0.00106933
-7.37625e-05
-0.000972438
-0.000266759
-0.000775016
-0.000567513
-0.000447
-0.000961375
2.67183e-05
-0.00140261
0.000627667
-0.00178249
0.00130509
-0.00200409
0.00195796
-0.00191135
0.00246189
-0.00144198
0.00271967
-0.000700971
0.00271744
4.77787e-05
0.00251654
0.000590779
0.00220084
0.000887416
0.00184775
0.000975085
0.00151567
0.000917437
0.00128524
0.00061689
0.0011233
0.000412511
0.000823437
0.000789755
5.83513e-05
0.00209471
-0.00153436
0.00450023
-0.00416653
0.00767248
-0.00749891
0.0100938
-0.0104093
0.00930375
-0.0106264
0.00143987
-0.00655187
-0.0109687
-0.00137536
-0.0173326
0.0145146
-0.0514799
0.0191442
-0.011597
0.0252371
-0.0249679
0.043777
-0.0569763
0.0242115
0.0740627
0.00400962
0.0605351
0.00063463
0.00558299
0.000878048
-0.000752445
0.00710577
-0.0192699
0.0106117
-0.0111506
0.0110677
-0.0033198
0.005027
0.0130506
-0.013182
0.0501412
-0.0387998
0.0780122
-0.0602013
0.0730073
-0.0707349
0.0432329
-0.0708159
0.00844733
-0.0642517
-0.0171883
-0.0527408
-0.0362627
-0.0391005
-0.0457719
-0.0213413
-0.0590975
-0.00627026
-0.0488966
-0.00201776
-0.0140851
0.00337607
-0.0170204
0.00969056
-0.0190188
0.0139897
-0.0132887
0.0167173
-0.00997986
0.0136427
0.00733005
0.00530439
0.0248539
-0.00242126
0.0258388
-0.00375624
0.00730527
0.00123421
-0.01461
0.00743434
-0.020009
0.0113333
-0.0119917
0.0146649
-0.010543
-0.00879436
0.0592449
0.028867
-0.0585747
0.060034
0.0299718
0.0602005
0.030777
0.0590618
0.0308145
0.0563598
0.0298361
0.0522657
0.0279133
0.0472066
0.0253489
0.0416749
0.0224776
0.0360991
0.0195718
0.0307873
0.0168185
0.025921
0.0143243
0.0215793
0.0121325
0.0177718
0.0102442
0.0144693
0.00863476
0.0116257
0.00727123
0.00918911
0.00611635
0.0071094
0.00513805
0.00533965
0.00430548
0.00383964
0.00359741
0.00257266
0.00299165
0.00150764
0.0024732
0.000617522
0.0020291
-0.000121125
0.00164764
-0.000730134
0.00132119
-0.00122631
0.00104121
-0.00162548
0.000802203
-0.00194137
0.000598724
-0.00218595
0.000426032
-0.00236927
0.000280045
-0.00250415
0.00015843
-0.0025934
5.45427e-05
-0.00264505
-3.13129e-05
-0.00266887
-0.000100077
-0.00266606
-0.000159486
-0.00264248
-0.000204902
-0.00260223
-0.000240346
-0.00254868
-0.000267453
-0.00248488
-0.000286871
-0.00241336
-0.000299912
-0.00233665
-0.00030633
-0.0022565
-0.000308733
-0.00217406
-0.000308719
-0.00209043
-0.00030627
-0.00200633
-0.00030258
-0.00192197
-0.000299247
-0.00183796
-0.000294524
-0.00175501
-0.000288077
-0.00167441
-0.000277572
-0.00159809
-0.000260861
-0.0015285
-0.000235931
-0.00146873
-0.000200641
-0.00142182
-0.000154966
-0.00139044
-9.99949e-05
-0.00137617
-3.92559e-05
-0.00137822
1.9527e-05
-0.00139237
6.52078e-05
-0.00140829
7.68359e-05
-0.00140761
2.62827e-05
-0.00136278
-0.000118593
-0.00123631
-0.000393228
-0.000985704
-0.000818126
-0.000574554
-0.00137253
1.62781e-05
-0.00199344
0.000763649
-0.00252987
0.00161021
-0.00285066
0.00243509
-0.00273624
0.00308562
-0.00209251
0.00343438
-0.00104973
0.0034521
3.0085e-05
0.00320626
0.000836615
0.00280109
0.00129257
0.00234092
0.00143525
0.00190661
0.00135174
0.00159992
0.000923573
0.00137665
0.00063576
0.000968565
0.00119782
-4.76515e-05
0.0031109
-0.00211719
0.00656976
-0.00545057
0.0110058
-0.00954552
0.0141887
-0.0129686
0.0127268
-0.012983
0.00145422
-0.00756017
-0.0163915
-0.00157379
-0.0233191
0.0166523
-0.069706
0.0236544
-0.0185989
0.0285605
-0.0298744
0.050109
-0.0785247
0.0314329
0.0927391
0.00677904
0.085189
0.00130754
0.0110544
0.00145134
-0.000896235
0.0089522
-0.0267708
0.0131043
-0.0153027
0.0129467
-0.00316219
0.00391963
0.0220776
-0.0197298
0.0737907
-0.0505426
0.108825
-0.0740308
0.0964953
-0.0839016
0.0531037
-0.0823802
0.0069258
-0.0741717
-0.0253968
-0.0606568
-0.0497776
-0.0449972
-0.0614314
-0.0242877
-0.079807
-0.00656143
-0.0666228
-0.00169531
-0.0189513
0.00479644
-0.0235122
0.0126177
-0.0268401
0.017924
-0.018595
0.02086
-0.0129159
0.0166096
0.0115804
0.00640758
0.0350559
-0.00245887
0.0347053
-0.0034088
0.00825519
0.00275854
-0.0207773
0.0100926
-0.027343
0.0148942
-0.0167933
0.0189089
-0.0145577
-0.0122492
0.0628833
0.0283789
-0.0623952
0.0635295
0.0293256
0.0640568
0.0302497
0.0639807
0.0308906
0.062877
0.0309398
0.0605464
0.0302439
0.0570421
0.0288532
0.0525958
0.0269239
0.0475261
0.0246416
0.0421628
0.0221818
0.0367955
0.0196916
0.0316448
0.0172833
0.0268558
0.0150332
0.0225064
0.0129842
0.018624
0.0111537
0.0152017
0.00953869
0.0122135
0.00812628
0.00962315
0.00689585
0.00739221
0.00582838
0.00548141
0.00490249
0.00385411
0.00410052
0.00247644
0.00340676
0.00131747
0.00280662
0.000349711
0.002289
-0.000451674
0.00184272
-0.0011088
0.00145944
-0.00164114
0.00113109
-0.00206602
0.000850895
-0.00239864
0.000612665
-0.00265197
0.000411773
-0.0028403
0.000242899
-0.00297314
0.000101539
-0.00305366
-1.95557e-05
-0.00309918
-0.000113957
-0.00311053
-0.000193549
-0.00309489
-0.000255987
-0.00305735
-0.000304992
-0.00300253
-0.000341698
-0.00293421
-0.000368241
-0.00285609
-0.00038446
-0.00277088
-0.000393953
-0.00268046
-0.000399155
-0.00258654
-0.0004002
-0.00249042
-0.000398718
-0.00239264
-0.000397049
-0.00229416
-0.000393021
-0.00219603
-0.000386228
-0.00209994
-0.000373676
-0.00200832
-0.000352502
-0.0019242
-0.000320063
-0.00185133
-0.000273521
-0.00179343
-0.000212873
-0.00175373
-0.000139708
-0.00173406
-5.89269e-05
-0.00173335
1.88122e-05
-0.00174635
7.82123e-05
-0.00176039
9.08716e-05
-0.00175356
1.94432e-05
-0.00169278
-0.000179365
-0.00153354
-0.000552473
-0.00122595
-0.00112572
-0.000727261
-0.00187123
-1.36335e-05
-0.00270707
0.000886986
-0.0034305
0.00191333
-0.00387701
0.00292635
-0.00374927
0.00374483
-0.00291099
0.00420693
-0.00151183
0.0042603
-2.32934e-05
0.0039744
0.00112251
0.0034737
0.00179326
0.00289435
0.0020146
0.00234437
0.00190171
0.00194919
0.00131874
0.00165096
0.000933982
0.00111028
0.00173847
-0.000201913
0.00442308
-0.00282089
0.00918872
-0.00692171
0.0151066
-0.011801
0.0190679
-0.0156849
0.0166108
-0.0153679
0.00113722
-0.00841717
-0.0233423
-0.00157752
-0.030159
0.018128
-0.0894114
0.0282361
-0.0287069
0.0311309
-0.0327695
0.0547428
-0.102137
0.0393182
0.108164
0.0103992
0.114108
0.00235891
0.0190945
0.00220812
-0.000745404
0.0109237
-0.0354864
0.0156964
-0.0200754
0.0145282
-0.00199395
0.0017792
0.0348266
-0.0277687
0.103339
-0.0633176
0.144374
-0.0877731
0.120951
-0.0962513
0.0615818
-0.0930968
0.00377156
-0.0834797
-0.0350139
-0.0681472
-0.0651101
-0.0505912
-0.0789874
-0.0269236
-0.103474
-0.00658008
-0.0869664
-0.00117478
-0.0243566
0.00640804
-0.031095
0.0158332
-0.0362653
0.0222853
-0.0250471
0.0253639
-0.0159945
0.0197956
0.0171488
0.00775382
0.0470977
-0.00213829
0.0445974
-0.00260183
0.0087187
0.00476436
-0.0281435
0.0132043
-0.035783
0.0189861
-0.0225751
0.0237066
-0.0192782
-0.0163063
0.0668748
0.0279801
-0.066476
0.0673535
0.0288469
0.0678608
0.0297425
0.0681722
0.0305792
0.0679703
0.0311417
0.0669662
0.031248
0.0649916
0.0308278
0.0620213
0.0298942
0.0581534
0.0285095
0.0535726
0.0267625
0.0485104
0.0247538
0.0432092
0.0225845
0.0378931
0.0203493
0.0327467
0.0181306
0.0279047
0.0159957
0.023451
0.0139923
0.0194272
0.0121502
0.0158418
0.0104812
0.0126835
0.00898678
0.009927
0.00765898
0.00754103
0.0064865
0.00549143
0.00545635
0.00374362
0.00455444
0.00226442
0.00376824
0.00102237
0.00308485
-1.14301e-05
0.0024933
-0.000863457
0.00198312
-0.00155764
0.00154506
-0.00211542
0.00117045
-0.00255599
0.000852365
-0.00289575
0.000582681
-0.0031506
0.000356401
-0.00333845
0.000168295
-0.00345653
4.1222e-06
-0.00353072
-0.000119359
-0.00356201
-0.000224698
-0.00355862
-0.000308376
-0.00352742
-0.000372903
-0.00347404
-0.000421632
-0.00340382
-0.00045469
-0.00332087
-0.00047692
-0.0032281
-0.000491939
-0.00312816
-0.000500151
-0.00302317
-0.000503732
-0.00291419
-0.000506045
-0.00280273
-0.000504508
-0.00269027
-0.0004987
-0.00257904
-0.000484931
-0.00247201
-0.000459543
-0.0023729
-0.000419194
-0.00228618
-0.000360248
-0.00221632
-0.000282746
-0.00216713
-0.000188908
-0.00214071
-8.53495e-05
-0.00213584
1.3941e-05
-0.0021461
8.84703e-05
-0.00215659
0.000101363
-0.00214137
4.2278e-06
-0.00206242
-0.000258312
-0.001868
-0.000746902
-0.00150112
-0.0014926
-0.00091274
-0.00245962
-7.58291e-05
-0.00354399
0.000984047
-0.00449038
0.00219813
-0.0050911
0.00341439
-0.00496553
0.00442388
-0.00392048
0.00502596
-0.0021139
0.00513763
-0.000134952
0.00482212
0.00143803
0.00422386
0.00239151
0.00351531
0.00272315
0.00283664
0.00258037
0.00233974
0.00181564
0.00195005
0.00132366
0.0012474
0.00244109
-0.00041548
0.00608593
-0.00365656
0.0124298
-0.00858486
0.0200349
-0.0142537
0.0247368
-0.0185263
0.0208834
-0.0177189
0.000329791
-0.00912679
-0.0319344
-0.00138714
-0.0378988
0.0184666
-0.109265
0.03224
-0.0424801
0.0330566
-0.0335864
0.0577883
-0.126868
0.0477626
0.11819
0.014937
0.146934
0.00391724
0.0301141
0.00318145
-9.88764e-06
0.0129847
-0.0452896
0.0183334
-0.025424
0.01568
0.000659382
-0.00150199
0.0520087
-0.0372593
0.139096
-0.0767996
0.183914
-0.101063
0.145214
-0.107752
0.0682706
-0.103183
-0.00079818
-0.0924641
-0.0457325
-0.075477
-0.0820972
-0.0560743
-0.0983901
-0.0293477
-0.130201
-0.00638188
-0.109932
-0.000491349
-0.0302471
0.00813349
-0.0397198
0.0192472
-0.0473789
0.0270453
-0.0328452
0.030253
-0.0192022
0.0232668
0.0241349
0.00945655
0.060908
-0.00136509
0.055419
-0.00131593
0.00866952
0.00724824
-0.0367077
0.0167759
-0.0453107
0.0236203
-0.0294194
0.0290758
-0.0247337
-0.020951
0.0711779
0.02763
-0.0708278
0.0715541
0.0284707
0.071963
0.0293336
0.0723276
0.0302146
0.0724843
0.030985
0.0722212
0.0315111
0.0713366
0.0317124
0.0696834
0.0315475
0.0671913
0.0310017
0.0638696
0.0300842
0.0597991
0.0288243
0.0551177
0.027266
0.0500032
0.0254638
0.0446532
0.0234807
0.0392626
0.0213863
0.0340036
0.0192514
0.0290114
0.0171424
0.024379
0.0151137
0.0201603
0.0132055
0.016377
0.0114423
0.0130276
0.00983586
0.0100951
0.00838892
0.00755245
0.00709707
0.00536804
0.00595268
0.00350773
0.0049452
0.00193742
0.00406362
0.000624096
0.00329644
-0.000463183
0.00263232
-0.00135336
0.00206064
-0.00207285
0.00157187
-0.00264491
0.00115476
-0.00309069
0.000802185
-0.00342807
0.00050569
-0.00368251
0.000258563
-0.0038514
4.95362e-05
-0.00396103
-0.000115071
-0.00401886
-0.000250542
-0.0040331
-0.000358668
-0.00401222
-0.000442519
-0.00396405
-0.000502875
-0.00389463
-0.000546356
-0.00380839
-0.000578187
-0.00370935
-0.000599217
-0.00360079
-0.000612303
-0.00348463
-0.00062223
-0.00336309
-0.000626062
-0.00323834
-0.000623472
-0.00311321
-0.000610082
-0.00299139
-0.000581377
-0.00287732
-0.00053328
-0.00277633
-0.000461253
-0.00269368
-0.000365406
-0.00263384
-0.000248754
-0.00259938
-0.00011982
-0.00258862
3.18582e-06
-0.0025944
9.42525e-05
-0.0025992
0.000106155
-0.00257416
-2.08129e-05
-0.00247511
-0.000357367
-0.00224436
-0.00097765
-0.00181795
-0.00191902
-0.00114058
-0.00313699
-0.000181004
-0.00450358
0.00103791
-0.00570931
0.00244429
-0.00649749
0.00387716
-0.00639841
0.00510199
-0.00514531
0.00587613
-0.00288804
0.00607527
-0.000334091
0.00574881
0.00176448
0.00505669
0.00308362
0.00421216
0.00356768
0.00339262
0.0033999
0.00277941
0.00242884
0.00227803
0.00182501
0.00137787
0.00334123
-0.000696594
0.00816038
-0.00463467
0.0163679
-0.0104411
0.0258413
-0.016886
0.0311817
-0.0214558
0.0254532
-0.0199742
-0.0011518
-0.00975376
-0.0421549
-0.00121838
-0.0464344
0.0170122
-0.127496
0.0347899
-0.0602577
0.0346168
-0.0334135
0.0598214
-0.152073
0.0567234
0.121288
0.0204599
0.183197
0.00612256
0.0444512
0.00441716
0.00169572
0.0150984
-0.0559708
0.0209383
-0.0312639
0.0162625
0.00533515
-0.00603812
0.0743094
-0.0480963
0.181154
-0.090631
0.226449
-0.113692
0.168275
-0.118598
0.0731766
-0.112983
-0.00641324
-0.101457
-0.0572586
-0.0829339
-0.10062
-0.0616639
-0.11966
-0.0317166
-0.160148
-0.00605884
-0.13559
0.000287149
-0.0365931
0.00987028
-0.0493029
0.0227322
-0.0602409
0.0321525
-0.0422655
0.0355547
-0.0226043
0.0271063
0.0325833
0.0116317
0.0763826
-4.60621e-05
0.0670967
0.00045082
0.00817262
0.0102058
-0.0464626
0.0208118
-0.0559167
0.0287984
-0.037406
0.0350285
-0.0309638
-0.0261534
0.0757934
0.0273133
-0.0754767
0.0761153
0.0281488
0.0764491
0.0289998
0.0767702
0.0298936
0.07701
0.0307452
0.0770555
0.0314656
0.0767665
0.0320014
0.0759983
0.0323156
0.0746249
0.0323751
0.072555
0.0321541
0.0697423
0.0316371
0.06619
0.0308183
0.0619536
0.0297002
0.0571385
0.0282958
0.0518927
0.026632
0.0463928
0.0247514
0.0408232
0.022712
0.0353558
0.0205811
0.0301333
0.0184281
0.0252601
0.0163155
0.0208021
0.0142939
0.0167917
0.0123993
0.013235
0.0106537
0.01012
0.00906777
0.00742186
0.00764331
0.00510907
0.00637641
0.00314628
0.00525922
0.00149703
0.00428156
0.00012518
0.00343249
-0.00100154
0.00269861
-0.00191687
0.00207011
-0.00264913
0.00153446
-0.00322459
0.00108116
-0.00366478
0.000698751
-0.0039984
0.000383164
-0.00423199
0.000118519
-0.00438656
-9.59708e-05
-0.00447915
-0.000266089
-0.00451694
-0.000404733
-0.00451185
-0.000507982
-0.0044729
-0.000585319
-0.00440675
-0.000644348
-0.0043193
-0.000686684
-0.00421562
-0.000716002
-0.00409881
-0.000739062
-0.0039722
-0.000752694
-0.00383884
-0.000756855
-0.0037024
-0.000746545
-0.00356742
-0.000716372
-0.0034392
-0.000661519
-0.00332401
-0.000576453
-0.00322805
-0.000461377
-0.00315655
-0.000320266
-0.00311244
-0.000163936
-0.00309441
-1.4843e-05
-0.00309363
9.34658e-05
-0.00309116
0.000103684
-0.00305441
-5.75505e-05
-0.00293475
-0.000477034
-0.00266826
-0.00124414
-0.00218471
-0.00240257
-0.00142256