/*--------------------------------*- C++ -*----------------------------------*\
| =========                 |                                                 |
| \\      /  F ield         | OpenFOAM: The Open Source CFD Toolbox           |
|  \\    /   O peration     | Version:  2412                                  |
|   \\  /    A nd           | Website:  www.openfoam.com                      |
|    \\/     M anipulation  |                                                 |
\*---------------------------------------------------------------------------*/
FoamFile
{
    version     2.0;
    format      ascii;
    arch        "LSB;label=32;scalar=64";
    class       volVectorField;
    location    "0.19";
    object      ddtCorrDdt0(U);
}
// * * * * * * * * * * * * * * * * * * * * * * * * * * * * * * * * * * * * * //

dimensions      [0 1 -2 0 0 0 0];

internalField   nonuniform List<vector> 
12600
(
(14.0233 1.39797e-18 0.840973)
(23.1414 2.24331e-18 0.569246)
(15.6964 2.69882e-18 -0.716436)
(10.9633 0 -1.42641)
(8.49612 1.68986e-18 -1.83484)
(7.35191 9.90329e-19 -1.76092)
(7.05795 0 -1.72724)
(7.076 0 -1.80486)
(7.34747 2.63709e-18 -1.64858)
(7.95204 0 -1.51372)
(8.51031 -1.65753e-18 -1.54568)
(8.84465 -1.21381e-18 -1.47525)
(9.13163 4.9819e-19 -1.29541)
(9.31346 0 -1.24776)
(9.23424 -1.55534e-18 -1.28062)
(9.00669 0 -1.20414)
(8.74036 1.44801e-17 -1.05529)
(8.34144 0 -0.99898)
(7.70925 -1.06836e-17 -1.02723)
(6.92995 -1.18046e-17 -1.02125)
(6.15706 1.2442e-17 -0.949816)
(5.42045 -6.553e-21 -0.885171)
(4.73406 0 -0.878881)
(4.20179 -2.3429e-17 -0.894701)
(3.87847 0 -0.84765)
(3.72374 0 -0.739835)
(3.67477 -2.04846e-17 -0.645466)
(3.45903 0 -0.558642)
(3.05422 2.89747e-21 -0.521629)
(2.65082 1.97106e-17 -0.522084)
(2.10796 1.90158e-17 -0.464655)
(1.66012 1.77333e-17 -0.413948)
(1.37278 -1.66099e-17 -0.349976)
(0.871255 -3.09601e-17 -0.23975)
(0.503979 -2.7666e-17 -0.201309)
(0.0468779 2.52641e-17 -0.14471)
(-0.535935 0 -0.106814)
(-0.846934 -1.72859e-17 -0.0859877)
(-1.29087 0 -0.0235032)
(-1.58924 9.43401e-18 0.017653)
(-1.97882 0 0.0872566)
(-2.43313 -1.22503e-19 0.129143)
(-2.82224 0 0.189115)
(-3.32968 -1.18971e-19 0.24184)
(-3.61359 -2.05818e-17 0.285566)
(-4.0438 2.88476e-17 0.329713)
(-4.28733 -3.93572e-17 0.345061)
(-4.39145 0 0.379904)
(-4.39726 0 0.406589)
(-4.14434 -6.08992e-17 0.451647)
(-3.81081 -1.29681e-16 0.49194)
(-3.28772 -1.31474e-16 0.543978)
(-2.6489 3.40842e-20 0.602598)
(-1.84369 -1.14734e-16 0.676474)
(-1.0402 0 0.733721)
(-0.241576 6.97683e-17 0.768462)
(0.358628 3.82973e-17 0.761668)
(0.715471 6.99192e-18 0.687207)
(0.698981 0 0.546434)
(0.216661 0 0.321405)
(-0.468526 0 0.0688647)
(-1.14902 8.21088e-17 -0.145139)
(-1.49872 0 -0.244691)
(-1.38021 0 -0.162744)
(-1.2057 3.40814e-17 0.127883)
(-1.45729 0 0.543173)
(-2.48172 0 0.817932)
(-3.83617 0 0.815416)
(-4.43457 2.76311e-17 0.670472)
(-3.78356 -7.5423e-18 0.592445)
(-2.36777 -4.30206e-18 0.542009)
(-1.37248 2.04653e-19 0.443827)
(-1.5096 4.28856e-17 0.405583)
(-2.83828 0 0.359524)
(-4.42071 -1.29572e-17 0.506526)
(-5.18663 0 0.835491)
(-5.5458 0 1.10372)
(-6.10654 0 1.25194)
(-6.33557 1.80755e-19 1.36103)
(-6.75069 -1.96854e-17 1.45746)
(-7.75915 -3.90406e-17 1.43892)
(-7.67751 -2.65186e-17 1.43641)
(-6.68786 -2.9094e-18 1.31489)
(-6.00507 0 1.00884)
(-3.88011 0 0.789932)
(-2.73581 4.53055e-17 0.653387)
(-3.19374 -2.3028e-16 0.451562)
(-2.94381 4.14532e-16 0.675215)
(-4.59141 3.34645e-17 0.875157)
(-6.73739 0 1.16744)
(-8.0868 -3.09871e-16 1.72302)
(-10.7605 7.02289e-17 2.0473)
(-12.2796 -1.86022e-16 2.43198)
(-13.5425 6.39877e-17 2.70502)
(-14.7849 0 2.8119)
(-14.7837 0 2.86341)
(-14.8887 0 2.78397)
(-14.2117 0 2.68562)
(-13.652 0 2.57598)
(-12.6341 0 2.41305)
(-11.8792 -1.61633e-16 2.29109)
(-11.1525 -4.34843e-16 2.13772)
(-10.7537 -2.75916e-16 2.07334)
(-10.195 0 1.95375)
(-9.82007 0 1.89909)
(-9.38535 0 1.79525)
(-9.08507 -2.84723e-16 1.79281)
(-8.91654 -2.86247e-16 1.74012)
(-9.1223 1.9831e-16 1.76656)
(-8.71881 0 1.71862)
(-9.06811 -1.43078e-16 1.7501)
(-8.61045 0 1.66619)
(-8.97124 -1.60542e-16 1.75069)
(-8.62033 1.37588e-16 1.6624)
(-9.35723 -2.32346e-16 1.82317)
(-8.57108 -1.04883e-16 1.6733)
(-9.87901 1.5527e-16 1.91115)
(-8.4828 -2.27114e-21 1.65032)
(-9.8819 1.38798e-16 1.92458)
(-8.21545 0 1.59845)
(20.1994 -1.4112e-18 1.14902)
(30.4452 0 -0.157373)
(32.042 -2.73158e-18 -1.92434)
(30.4522 0 -3.40495)
(28.2514 -1.71237e-18 -4.38991)
(26.5726 -1.99644e-18 -4.74369)
(25.4735 -2.96202e-19 -4.78044)
(24.9066 0 -4.82331)
(24.6564 4.91141e-20 -4.72191)
(24.5896 1.79583e-18 -4.51759)
(24.574 -1.71732e-18 -4.3711)
(24.4493 -1.24362e-18 -4.21356)
(24.162 4.7791e-19 -4.02346)
(23.711 4.96828e-19 -3.91356)
(23.1302 3.15737e-18 -3.79866)
(22.4686 0 -3.58041)
(21.6749 3.80495e-20 -3.37128)
(20.6735 9.25988e-18 -3.29794)
(19.4751 1.0839e-17 -3.25776)
(18.1697 0 -3.11471)
(16.8342 0 -2.91891)
(15.4737 1.27822e-17 -2.7895)
(14.1465 0 -2.74551)
(13.008 1.18652e-17 -2.68476)
(12.1058 -2.22627e-17 -2.47528)
(11.3467 0 -2.15938)
(10.6574 2.07434e-17 -1.91298)
(9.7814 0 -1.71177)
(8.70134 -2.04302e-17 -1.59005)
(7.63545 -3.9841e-17 -1.53417)
(6.43859 -3.84326e-17 -1.33271)
(5.31314 -1.79494e-17 -1.11655)
(4.34116 1.68076e-17 -0.899154)
(3.13401 6.26312e-17 -0.580699)
(2.03223 5.59246e-17 -0.420687)
(0.843148 0 -0.255302)
(-0.4781 0 -0.0993241)
(-1.52188 1.38225e-19 -0.00627199)
(-2.68311 0 0.191118)
(-3.69533 -9.52402e-18 0.353124)
(-4.78581 0 0.57026)
(-5.92987 -4.33561e-18 0.752455)
(-6.97907 0 0.953219)
(-8.10832 1.17628e-17 1.15568)
(-8.95967 0 1.30531)
(-9.87912 -2.90477e-17 1.4634)
(-10.5248 0 1.53752)
(-10.928 0 1.62163)
(-11.1171 5.62188e-17 1.6801)
(-10.9254 0 1.72896)
(-10.5262 0 1.74765)
(-9.7955 0 1.75947)
(-8.81826 1.26883e-16 1.76388)
(-7.56645 2.2987e-16 1.77056)
(-6.21426 0 1.75199)
(-4.80613 0 1.68959)
(-3.56011 -3.73991e-17 1.57686)
(-2.52323 -6.99157e-18 1.36714)
(-1.84286 0 1.06643)
(-1.60017 0 0.650816)
(-1.59211 0 0.199647)
(-1.79719 0 -0.15558)
(-2.14156 4.20534e-17 -0.257305)
(-2.72944 -1.97678e-18 0.0163844)
(-4.03053 -3.41954e-17 0.706549)
(-6.25858 0 1.59841)
(-9.24493 0 2.31755)
(-11.8458 0 2.52458)
(-12.5214 -7.18046e-19 2.07224)
(-10.638 7.47015e-18 1.84633)
(-7.50007 4.25704e-18 1.53659)
(-5.3265 -5.29686e-17 1.233)
(-5.76215 1.10929e-19 1.24808)
(-8.79773 4.66696e-17 1.24884)
(-12.5585 1.27729e-17 2.04707)
(-15.4329 0 2.86238)
(-17.5165 0 3.48448)
(-19.4731 0 3.89381)
(-20.746 3.28493e-17 4.178)
(-22.1349 0 4.44319)
(-23.6492 0 4.50178)
(-23.329 2.59542e-17 4.39918)
(-20.6218 2.84445e-18 3.92018)
(-17.4881 0 3.14073)
(-12.8619 0 2.43075)
(-10.4663 0 2.10469)
(-11.0532 2.25131e-16 1.9144)
(-12.4438 -1.06043e-19 2.5015)
(-16.9798 3.24911e-17 3.28785)
(-22.7795 -1.94558e-16 4.29958)
(-28.2476 2.99785e-16 5.67249)
(-34.6783 6.81302e-17 6.71727)
(-39.376 3.59753e-16 7.69748)
(-42.8795 0 8.40152)
(-45.3217 0 8.71195)
(-45.4253 0 8.75644)
(-44.8915 0 8.53462)
(-43.0221 2.22474e-16 8.19897)
(-41.2558 0 7.86248)
(-38.548 0 7.36134)
(-36.554 -1.54939e-16 7.00573)
(-34.3848 2.08282e-16 6.57515)
(-33.3424 5.28061e-16 6.39528)
(-31.6637 -3.58246e-16 6.05173)
(-30.7911 0 5.90217)
(-29.4007 0 5.62171)
(-29.0985 0 5.6223)
(-28.4501 1.36309e-16 5.48058)
(-29.0491 -1.88732e-16 5.57645)
(-28.044 0 5.41601)
(-28.8769 2.71833e-16 5.53679)
(-27.6103 2.53189e-16 5.29994)
(-28.9853 3.04706e-16 5.56817)
(-27.7384 0 5.3227)
(-30.2135 0 5.81215)
(-27.8723 -9.92804e-17 5.36321)
(-31.8277 0 6.10091)
(-27.5427 -1.15472e-16 5.29003)
(-32.057 -1.31005e-16 6.15342)
(-26.3533 0 5.05064)
(19.0883 0 -10.1268)
(27.8953 0 -6.49746)
(34.5421 -3.0603e-18 -5.46179)
(38.6667 0 -5.61271)
(40.4545 0 -5.90988)
(40.9441 9.40081e-19 -6.55075)
(40.963 2.80477e-19 -6.94475)
(40.768 0 -7.05217)
(40.5816 4.62467e-20 -7.10074)
(40.5169 -1.70133e-18 -6.98936)
(40.3035 3.26329e-18 -6.79808)
(39.8036 1.17839e-18 -6.68384)
(39.155 1.5329e-20 -6.58009)
(38.4065 -4.70793e-19 -6.38378)
(37.4735 -1.49635e-18 -6.12125)
(36.3295 2.52329e-18 -5.90209)
(34.9998 -7.01506e-18 -5.76746)
(33.5141 -8.77509e-18 -5.63688)
(31.8652 0 -5.41961)
(30.0477 0 -5.13249)
(28.1058 1.18808e-17 -4.89991)
(26.1058 1.19739e-17 -4.74886)
(24.1669 0 -4.58707)
(22.4475 0 -4.31977)
(20.9458 2.10953e-17 -3.91023)
(19.5204 0 -3.44436)
(18.1144 -3.92401e-17 -3.10455)
(16.5047 1.95275e-17 -2.84267)
(14.6862 0 -2.60046)
(12.8956 1.88342e-17 -2.39726)
(10.971 1.81703e-17 -2.02302)
(9.08672 0 -1.58305)
(7.33638 -1.58201e-17 -1.19248)
(5.32194 -2.96587e-17 -0.703457)
(3.39014 -3.49914e-20 -0.373545)
(1.37193 0 -0.108061)
(-0.773791 0 0.203405)
(-2.63681 1.64068e-17 0.41335)
(-4.59988 0 0.746903)
(-6.40184 0 1.07429)
(-8.26445 0 1.43415)
(-10.1448 0 1.80618)
(-11.8922 0 2.15203)
(-13.6604 0 2.52473)
(-15.0824 0 2.79001)
(-16.4816 2.76407e-17 3.05296)
(-17.5038 -3.78025e-17 3.20341)
(-18.1689 0 3.29927)
(-18.4927 -5.31883e-17 3.35569)
(-18.3124 0 3.3233)
(-17.7828 0 3.23268)
(-16.7888 1.25061e-16 3.08165)
(-15.4139 0 2.89611)
(-13.6503 -1.08592e-16 2.67343)
(-11.6934 8.92911e-17 2.42728)
(-9.61731 0 2.14572)
(-7.6663 3.53503e-17 1.85154)
(-5.90828 0 1.51057)
(-4.49609 0 1.13065)
(-3.53552 0 0.712066)
(-2.92439 -9.32146e-17 0.306908)
(-2.81827 -7.63821e-17 0.0717879)
(-3.38787 -3.94717e-19 0.177559)
(-4.89504 3.39906e-18 0.726144)
(-7.77729 -1.07382e-19 1.70333)
(-11.9084 0 2.81642)
(-16.575 0 3.77324)
(-20.0607 3.49551e-17 4.12795)
(-20.5084 -7.96802e-19 3.48728)
(-17.3736 0 3.05175)
(-12.8207 0 2.3756)
(-9.89702 2.51315e-17 1.9766)
(-11.0074 -3.2356e-20 2.25378)
(-15.8413 -9.91111e-19 2.64442)
(-21.7335 0 4.22581)
(-26.7104 0 5.31266)
(-30.5153 -5.2204e-17 6.13254)
(-33.8661 3.29784e-17 6.75965)
(-36.1615 0 7.17866)
(-38.4013 0 7.56264)
(-40.1376 0 7.70037)
(-39.3072 0 7.38196)
(-34.8411 0 6.43773)
(-29.5608 0 5.31183)
(-23.0745 0 4.21185)
(-20.1425 0 3.8864)
(-21.5134 -2.12163e-16 4.13077)
(-25.0538 -1.89302e-16 5.10675)
(-32.7054 -3.05374e-17 6.62658)
(-42.1353 1.82822e-16 8.44491)
(-51.5171 -2.81459e-16 10.3981)
(-61.3029 -6.39941e-17 12.1311)
(-68.721 -1.68903e-16 13.5155)
(-74.0145 0 14.4689)
(-77.2218 0 14.8922)
(-77.1394 0 14.7992)
(-75.809 0 14.414)
(-72.6714 -2.08717e-16 13.8044)
(-69.6986 0 13.2303)
(-65.3339 0 12.3983)
(-62.2361 1.45275e-16 11.8378)
(-58.7007 0 11.1703)
(-57.1117 -2.47447e-16 10.898)
(-54.3233 3.35716e-16 10.3513)
(-53.0886 0 10.136)
(-50.8143 0 9.71402)
(-50.67 0 9.74769)
(-49.5194 1.27612e-16 9.52632)
(-50.5647 0 9.70822)
(-48.8995 -1.09303e-16 9.41787)
(-50.312 -5.81006e-21 9.64965)
(-48.2345 -2.36957e-16 9.27895)
(-50.7505 -2.85524e-16 9.75181)
(-48.5767 0 9.3605)
(-52.8853 2.05696e-16 10.1846)
(-48.9125 9.28646e-17 9.43568)
(-55.6192 1.37525e-16 10.6847)
(-48.3004 0 9.29536)
(-56.1486 1.22494e-16 10.7812)
(-46.0132 0 8.77761)
(19.172 0 -17.0719)
(24.2424 0 -13.2889)
(30.5922 2.89302e-18 -10.7727)
(37.162 0 -9.45361)
(42.455 -1.65476e-18 -8.73527)
(46.3082 1.79422e-18 -8.59199)
(49.2575 0 -8.64501)
(51.2871 5.88527e-19 -8.73785)
(52.5816 -1.29582e-18 -8.81937)
(53.409 -1.6625e-18 -8.82665)
(53.733 -1.5472e-18 -8.80338)
(53.6005 1.13566e-18 -8.72695)
(53.16 -4.42777e-19 -8.57134)
(52.421 -8.638e-19 -8.38346)
(51.336 0 -8.21226)
(49.9684 -4.74466e-18 -8.04782)
(48.3959 0 -7.84892)
(46.6283 0 -7.58942)
(44.6093 0 -7.3045)
(42.321 1.05466e-17 -7.02976)
(39.8507 -1.5826e-19 -6.79974)
(37.3211 -1.93232e-19 -6.55851)
(34.8567 1.08068e-17 -6.21799)
(32.5817 0 -5.75838)
(30.4591 0 -5.21865)
(28.333 0 -4.66681)
(26.1803 3.69034e-17 -4.2364)
(23.8164 -1.70574e-19 -3.87522)
(21.2333 0 -3.46901)
(18.6708 0 -3.07857)
(15.9548 0 -2.53759)
(13.2295 0 -1.89563)
(10.6061 2.98408e-17 -1.3424)
(7.68854 0 -0.710907)
(4.82717 -2.49925e-17 -0.201294)
(1.88276 0 0.178654)
(-1.18148 0 0.653415)
(-3.95769 -1.51027e-17 1.01127)
(-6.81296 0 1.48099)
(-9.49157 0 1.98291)
(-12.2076 5.47313e-18 2.47324)
(-14.895 -3.21844e-18 3.02029)
(-17.4003 0 3.49108)
(-19.8528 1.08064e-17 4.00016)
(-21.8751 0 4.36535)
(-23.7703 -5.21939e-17 4.69014)
(-25.1679 5.51013e-20 4.89794)
(-26.0792 0 4.97895)
(-26.5042 0 5.0156)
(-26.2857 5.48906e-17 4.89883)
(-25.5604 1.16736e-16 4.70359)
(-24.225 -2.36251e-16 4.40941)
(-22.3656 0 4.06402)
(-19.9983 -1.02613e-16 3.66146)
(-17.3469 -8.42873e-17 3.23237)
(-14.5206 -6.1606e-17 2.77585)
(-11.7998 -3.32935e-17 2.31256)
(-9.28289 0 1.82895)
(-7.14794 0 1.31721)
(-5.54608 7.65157e-17 0.818698)
(-4.48356 1.7554e-16 0.403663)
(-4.27593 7.20412e-17 0.279793)
(-5.28543 -4.02342e-19 0.641507)
(-7.84963 -1.44496e-18 1.55918)
(-12.2983 1.54009e-17 2.92881)
(-18.1396 0 4.37204)
(-24.2083 0 5.43984)
(-28.2906 -3.2941e-17 5.69104)
(-28.2841 -4.54092e-17 5.00557)
(-24.0212 0 4.10403)
(-18.3701 -4.09052e-18 3.16182)
(-15.1088 -2.38819e-17 2.85676)
(-17.2194 -3.76743e-17 3.54223)
(-23.9415 -8.00349e-17 4.35697)
(-31.9212 0 6.6264)
(-38.8983 0 7.96196)
(-44.3248 4.91252e-17 9.00265)
(-48.9879 -6.17965e-17 9.82514)
(-52.2219 -2.87487e-17 10.3729)
(-55.1739 0 10.8303)
(-56.9295 0 10.9025)
(-55.4208 0 10.3289)
(-49.3015 0 8.93211)
(-42.3278 0 7.48558)
(-34.6402 0 6.22847)
(-31.8312 -3.84508e-17 6.07791)
(-34.5765 2.9083e-19 6.80854)
(-40.5866 1.77977e-16 8.34445)
(-51.51 0 10.5718)
(-64.4762 1.71713e-16 13.1455)
(-77.453 1.32134e-16 15.7241)
(-90.1854 0 17.9968)
(-99.8534 -1.58387e-16 19.7313)
(-106.499 -5.34652e-17 20.8258)
(-110.107 0 21.2444)
(-109.583 0 20.9674)
(-107.359 0 20.3673)
(-102.893 -1.95705e-16 19.4789)
(-98.7406 0 18.6619)
(-92.7522 0 17.518)
(-88.6823 1.3623e-16 16.7801)
(-83.8346 -1.83039e-16 15.8874)
(-81.7806 0 15.5378)
(-77.8761 0 14.7894)
(-76.4021 0 14.5332)
(-73.278 0 13.9737)
(-73.4168 0 14.0743)
(-71.6955 5.67748e-20 13.7565)
(-73.2337 0 14.029)
(-70.8068 1.02282e-16 13.5958)
(-72.8877 -1.1901e-16 13.9423)
(-69.9413 0 13.4346)
(-73.6904 -3.46333e-19 14.1277)
(-70.5016 0 13.5721)
(-76.6943 -1.01984e-19 14.735)
(-70.9818 0 13.6732)
(-80.4618 -1.28581e-16 15.4208)
(-70.0366 0 13.4457)
(-81.2504 1.14278e-16 15.5389)
(-66.7066 0 12.6254)
(20.4226 0 -20.7581)
(22.7714 0 -18.0097)
(26.74 0 -15.6667)
(32.2088 0 -13.804)
(38.0389 1.562e-18 -12.5331)
(43.854 -7.67622e-21 -11.5061)
(49.3195 0 -10.7508)
(53.8423 -5.55523e-19 -10.4407)
(57.4992 0 -10.3732)
(60.4125 3.15477e-18 -10.2919)
(62.4131 0 -10.2001)
(63.5457 -1.07217e-18 -10.1376)
(64.0168 0 -10.0996)
(63.9269 8.15542e-19 -10.0494)
(63.312 -1.29599e-18 -9.93704)
(62.2668 4.41935e-18 -9.74069)
(60.8617 -6.07977e-18 -9.49537)
(59.1007 -7.60073e-18 -9.24294)
(56.9544 0 -9.01521)
(54.4502 -9.95898e-18 -8.7745)
(51.7111 -1.04621e-17 -8.48805)
(48.8692 -2.07738e-17 -8.10994)
(46.025 -1.02046e-17 -7.61571)
(43.2781 0 -7.04163)
(40.5928 0 -6.44019)
(37.8238 0 -5.82484)
(34.9767 -1.73545e-17 -5.27519)
(31.8985 -1.72762e-17 -4.76259)
(28.5654 0 -4.16336)
(25.2128 0 -3.57641)
(21.6687 1.57545e-17 -2.88511)
(18.0474 0 -2.07662)
(14.483 -1.06439e-19 -1.37559)
(10.5937 -2.62452e-17 -0.608744)
(6.72275 2.33982e-17 0.0905952)
(2.77007 0 0.620829)
(-1.29847 0 1.28011)
(-5.08171 1.42542e-17 1.81658)
(-8.92195 0 2.43616)
(-12.5735 0 3.11198)
(-16.234 -5.1648e-18 3.72837)
(-19.8145 3.03694e-18 4.42897)
(-23.155 0 5.00797)
(-26.3581 -1.01956e-17 5.62704)
(-29.0369 0 6.07354)
(-31.4692 2.46024e-17 6.43728)
(-33.2718 3.36343e-17 6.68163)
(-34.4436 0 6.7307)
(-34.9695 4.72405e-17 6.72586)
(-34.698 -5.17649e-17 6.50874)
(-33.7469 -2.20148e-16 6.19071)
(-32.0274 1.11414e-16 5.73806)
(-29.63 -1.07019e-16 5.21941)
(-26.5978 -1.35152e-19 4.62959)
(-23.1862 0 4.01124)
(-19.5446 5.8066e-17 3.37795)
(-15.9964 3.13772e-17 2.74206)
(-12.6839 -5.50965e-18 2.1121)
(-9.82779 -1.99057e-17 1.46648)
(-7.64368 -7.20887e-17 0.894823)
(-6.25172 -8.25329e-17 0.502357)
(-6.10439 6.69777e-17 0.551652)
(-7.70237 -3.45456e-17 1.25039)
(-11.3873 0 2.61354)
(-17.3304 0 4.41684)
(-24.6795 1.02842e-17 6.14208)
(-31.8634 0 7.23599)
(-36.2766 0 7.32421)
(-35.7635 2.11249e-17 6.42665)
(-30.5389 0 5.03419)
(-24.1255 3.84855e-18 3.9471)
(-20.9128 4.48993e-17 3.88614)
(-24.2812 0 5.09995)
(-32.89 3.71924e-17 6.38143)
(-42.8455 0 9.25336)
(-51.6708 0 10.8304)
(-58.5889 -4.6034e-17 12.0509)
(-64.458 2.89188e-17 13.0139)
(-68.542 3.7309e-20 13.6588)
(-72.0814 0 14.1369)
(-73.7204 0 14.0676)
(-71.4965 0 13.1935)
(-63.9626 -2.89629e-18 11.3709)
(-55.7966 1.77642e-17 9.71281)
(-47.5688 0 8.49226)
(-45.4596 7.21032e-17 8.68635)
(-50.0406 9.32428e-17 10.0237)
(-58.7127 -3.3412e-16 12.2386)
(-72.9473 -2.71321e-17 15.1877)
(-89.2545 -3.22105e-16 18.4777)
(-105.486 0 21.6044)
(-120.736 0 24.2773)
(-132.232 1.48513e-16 26.2445)
(-139.836 5.01243e-17 27.3599)
(-143.558 -1.45027e-16 27.676)
(-142.393 0 27.152)
(-139.229 0 26.31)
(-133.396 1.83363e-16 25.1327)
(-128.113 1.40928e-16 24.0798)
(-120.529 0 22.6374)
(-115.606 -1.27582e-16 21.7548)
(-109.467 1.71396e-16 20.6524)
(-107.013 0 20.2444)
(-101.96 0 19.2943)
(-100.346 0 19.0238)
(-96.3536 0 18.3341)
(-96.8705 0 18.5276)
(-94.462 -1.11814e-16 18.0953)
(-96.5352 0 18.4639)
(-93.2015 0 17.8646)
(-96.0217 0 18.3374)
(-92.0865 2.07224e-16 17.6812)
(-97.1237 1.25311e-16 18.6036)
(-92.7804 0 17.8681)
(-100.86 -1.79742e-16 19.3617)
(-93.2938 0 17.9774)
(-105.466 -1.20254e-16 20.1921)
(-91.9777 0 17.6467)
(-106.356 -1.06797e-16 20.295)
(-87.8516 0 16.509)
(22.0281 -4.54812e-18 -23.2435)
(22.992 -3.86735e-18 -21.1672)
(24.9465 3.03844e-18 -19.3655)
(28.4823 2.25984e-18 -17.6174)
(32.9883 0 -16.153)
(38.3944 -7.90187e-19 -14.7481)
(44.225 0 -13.6139)
(49.9307 -5.90491e-19 -12.8449)
(55.4225 -1.23867e-18 -12.2305)
(60.3994 -2.97069e-18 -11.748)
(64.3971 1.35219e-18 -11.4746)
(67.3685 -9.75759e-19 -11.3802)
(69.5053 0 -11.3552)
(70.8908 0 -11.2938)
(71.5224 1.22185e-18 -11.15)
(71.4577 -2.71564e-20 -10.9522)
(70.7736 8.43911e-20 -10.7692)
(69.5263 1.39526e-19 -10.6148)
(67.7523 0 -10.4523)
(65.5123 0 -10.198)
(62.9243 0 -9.82675)
(60.1058 1.90622e-17 -9.34836)
(57.1444 9.13232e-18 -8.78354)
(54.144 0 -8.17055)
(51.0965 0 -7.53677)
(47.8728 1.61636e-17 -6.84742)
(44.4897 0 -6.15035)
(40.8187 0 -5.4618)
(36.8174 0 -4.67425)
(32.7173 0 -3.90947)
(28.367 -2.17295e-19 -3.09431)
(23.8536 0 -2.15371)
(19.334 -1.47201e-19 -1.31681)
(14.4513 2.47401e-17 -0.415846)
(9.52953 -2.04986e-19 0.482304)
(4.51392 0 1.19628)
(-0.626088 0 2.05907)
(-5.49985 0 2.79803)
(-10.4149 0 3.57807)
(-15.1382 0 4.42078)
(-19.8425 0 5.15521)
(-24.4162 0 5.98385)
(-28.689 3.23263e-18 6.65232)
(-32.7342 9.84278e-18 7.35546)
(-36.1568 0 7.86477)
(-39.2028 2.31475e-17 8.25049)
(-41.4789 0 8.51443)
(-42.9677 0 8.52113)
(-43.6381 -8.88838e-17 8.45888)
(-43.3438 0 8.12982)
(-42.1818 1.03658e-16 7.6735)
(-40.0783 0 7.04795)
(-37.1282 2.01658e-16 6.34067)
(-33.4032 -1.53663e-19 5.55083)
(-29.1909 0 4.73185)
(-24.6858 0 3.91393)
(-20.2605 0 3.10073)
(-16.1162 1.05608e-17 2.32431)
(-12.5336 3.72274e-17 1.55398)
(-9.80901 6.69625e-17 0.932908)
(-8.1763 7.65771e-17 0.609156)
(-8.19688 -1.25391e-16 0.896196)
(-10.4589 -3.15184e-17 1.99932)
(-15.2502 0 3.85164)
(-22.5559 0 6.08484)
(-31.1807 -1.55139e-19 8.04053)
(-39.2247 0 9.07868)
(-43.8046 0 8.84171)
(-42.8177 1.96246e-17 7.54932)
(-36.8298 0 5.81732)
(-30.0078 0 4.72356)
(-27.1769 -4.2054e-17 5.05092)
(-31.9576 3.26227e-17 6.88654)
(-42.1751 0 9.75549)
(-54.1562 0 12.0632)
(-64.6153 0 13.8439)
(-72.8616 4.3233e-17 15.1923)
(-79.8122 0 16.2459)
(-84.6685 5.06332e-17 16.9507)
(-88.7056 1.47036e-17 17.3994)
(-90.1843 0 17.1349)
(-87.3301 0 15.94)
(-78.7293 2.71785e-18 13.743)
(-69.8894 -1.66273e-19 11.9929)
(-61.7385 7.22047e-17 10.9823)
(-60.7902 -3.37762e-17 11.6776)
(-67.551 8.64589e-17 13.7199)
(-78.9511 1.56699e-16 16.6727)
(-96.4402 2.54389e-17 20.3361)
(-115.812 1.07159e-19 24.2874)
(-134.944 0 27.8808)
(-152.289 -5.26352e-17 30.8337)
(-165.254 0 32.9306)
(-173.483 0 33.9625)
(-177.125 1.35863e-16 34.1031)
(-175.175 0 33.2813)
(-171.078 0 32.1839)
(-163.855 0 30.7102)
(-157.515 -1.31953e-16 29.4326)
(-148.349 0 27.7003)
(-142.677 -1.19713e-16 26.7001)
(-135.236 0 25.3945)
(-132.433 0 24.942)
(-126.17 0 23.7835)
(-124.489 0 23.517)
(-119.553 0 22.6918)
(-120.519 -2.08045e-16 22.9947)
(-117.268 -1.04837e-16 22.4212)
(-119.921 1.44746e-16 22.8895)
(-115.493 0 22.0931)
(-119.104 0 22.6973)
(-114.003 -3.87376e-16 21.8689)
(-120.344 0 23.0185)
(-114.678 9.96897e-17 22.08)
(-124.591 0 23.883)
(-115.092 7.64307e-17 22.1709)
(-129.745 1.12375e-16 24.7963)
(-113.399 0 21.7241)
(-130.479 -9.94452e-17 24.8269)
(-108.81 0 20.29)
(23.4668 4.28308e-18 -25.3428)
(23.9459 7.32257e-18 -23.6206)
(25.0094 -2.86205e-18 -21.9573)
(27.082 1.28133e-20 -20.4098)
(29.955 1.40086e-18 -19.0302)
(33.914 0 -17.6923)
(38.687 0 -16.4488)
(43.9847 5.55998e-19 -15.3356)
(49.6971 2.29447e-18 -14.311)
(55.3652 6.31342e-20 -13.5264)
(60.4892 -1.27315e-18 -13.0395)
(64.9653 9.18714e-19 -12.7324)
(68.8333 -3.50146e-19 -12.4797)
(71.9931 0 -12.2364)
(74.2954 0 -12.0158)
(75.72 -1.92106e-18 -11.8444)
(76.3416 1.05276e-17 -11.7345)
(76.2483 1.30487e-17 -11.6339)
(75.4966 0 -11.47)
(74.1303 0 -11.1751)
(72.2347 0 -10.7586)
(69.9171 -3.2148e-19 -10.2613)
(67.274 -1.68869e-17 -9.70053)
(64.4274 7.91652e-18 -9.08207)
(61.3974 1.51813e-17 -8.409)
(58.0625 -2.99995e-17 -7.63037)
(54.4338 1.45424e-17 -6.7858)
(50.4062 1.45241e-17 -5.93871)
(45.927 1.43599e-17 -5.00108)
(41.2281 0 -4.09539)
(36.1948 -1.37794e-17 -3.18429)
(30.8907 1.28147e-17 -2.13919)
(25.4907 -1.22358e-17 -1.17463)
(19.6699 -2.27136e-17 -0.140901)
(13.7227 -4.08594e-17 0.957069)
(7.64173 0 1.87545)
(1.40363 0 2.94947)
(-4.61395 -1.18217e-17 3.90258)
(-10.6739 0 4.84635)
(-16.5563 6.0368e-18 5.84309)
(-22.4011 3.86794e-18 6.68391)
(-28.0743 0 7.6133)
(-33.3911 -6.48265e-18 8.35123)
(-38.3941 -9.26269e-18 9.11312)
(-42.6805 0 9.66755)
(-46.4573 -2.1781e-17 10.0618)
(-49.323 -2.96056e-17 10.332)
(-51.2379 0 10.2914)
(-52.1536 8.34033e-17 10.1616)
(-51.927 -4.57249e-17 9.71501)
(-50.6303 -9.7398e-17 9.11052)
(-48.2032 0 8.30264)
(-44.7418 9.55694e-20 7.3951)
(-40.3458 1.71985e-16 6.3947)
(-35.3321 0 5.36529)
(-29.9436 0 4.35568)
(-24.6074 -2.8286e-17 3.36267)
(-19.5976 -5.05361e-18 2.44335)
(-15.2727 -3.44653e-17 1.56375)
(-12.0216 -6.29463e-17 0.923887)
(-10.1876 -7.1978e-17 0.718417)
(-10.4111 5.86247e-17 1.30372)
(-13.3239 5.86062e-17 2.8658)
(-19.1195 0 5.23268)
(-27.5937 0 7.87444)
(-37.2462 -1.77049e-17 9.99164)
(-45.9322 0 10.8778)
(-50.5798 0 10.2551)
(-49.229 -1.84317e-17 8.49571)
(-42.7526 0 6.45698)
(-35.8689 3.24312e-18 5.47576)
(-33.6835 1.84255e-19 6.32586)
(-39.8778 -3.06265e-17 8.85718)
(-51.7142 0 12.7908)
(-65.4619 0 14.9996)
(-77.2317 0 16.9096)
(-86.6061 4.02533e-17 18.3233)
(-94.4966 0 19.4152)
(-100.068 -2.37378e-17 20.1464)
(-104.568 -2.71931e-17 20.5248)
(-105.952 0 20.0355)
(-102.665 0 18.5263)
(-93.4254 0 16.03)
(-84.4032 -1.79004e-19 14.315)
(-76.8636 -6.76899e-17 13.6757)
(-77.3964 -3.14974e-17 14.9982)
(-86.557 -8.10327e-17 17.8287)
(-100.624 1.46904e-16 21.5435)
(-121.234 0 25.8977)
(-143.341 1.41324e-16 30.4382)
(-165.043 0 34.4044)
(-184.096 4.93015e-17 37.5221)
(-198.268 0 39.6571)
(-206.872 0 40.5143)
(-210.348 0 40.4264)
(-207.525 -8.87459e-17 39.2666)
(-202.562 -8.5458e-17 37.912)
(-193.939 0 36.1374)
(-186.638 1.23448e-16 34.6516)
(-175.884 -1.93986e-16 32.6356)
(-169.548 1.12013e-16 31.5429)
(-160.764 -1.50425e-16 30.0364)
(-157.652 0 29.5518)
(-150.088 0 28.1741)
(-148.377 0 27.9254)
(-142.366 0 26.951)
(-143.833 1.9454e-16 27.3768)
(-139.553 -2.17244e-19 26.6312)
(-142.841 -2.70644e-16 27.2044)
(-137.095 0 26.1739)
(-141.522 0 26.9115)
(-135.03 1.80987e-16 25.8802)
(-142.642 0 27.2471)
(-135.485 -9.316e-17 26.0843)
(-147.102 0 28.1625)
(-135.672 -1.43109e-16 26.1332)
(-152.434 0 29.086)
(-133.634 0 25.5656)
(-152.697 9.28973e-17 28.9808)
(-128.889 0 23.8492)
(24.739 0 -26.8094)
(25.1104 -3.46203e-18 -25.377)
(25.8503 0 -23.8593)
(27.1845 -2.01474e-18 -22.4468)
(29.0313 -2.62435e-18 -21.1365)
(31.7582 0 -19.8659)
(35.2441 1.63404e-19 -18.6277)
(39.3435 0 -17.4389)
(44.0417 -1.07117e-19 -16.3582)
(49.0381 2.38667e-18 -15.493)
(54.022 0 -14.8203)
(58.9136 0 -14.2321)
(63.6254 3.2932e-19 -13.6914)
(67.9153 0 -13.2416)
(71.5415 0 -12.9167)
(74.4199 0 -12.6944)
(76.5714 -4.89984e-18 -12.5277)
(78.0255 -6.04973e-18 -12.3481)
(78.7737 -6.72199e-18 -12.1078)
(78.7954 0 -11.7742)
(78.1299 0 -11.3606)
(76.8735 -8.01078e-18 -10.8878)
(75.1249 7.79486e-18 -10.3412)
(73.0021 -7.44574e-18 -9.69757)
(70.5287 -1.42785e-17 -8.96091)
(67.575 2.73172e-17 -8.09509)
(64.136 -3.80384e-19 -7.13905)
(60.1334 -1.36599e-17 -6.18511)
(55.5168 -1.35053e-17 -5.15446)
(50.5195 0 -4.14886)
(45.0729 0 -3.16269)
(39.2187 -1.20514e-17 -2.03168)
(33.1416 0 -0.946158)
(26.5534 2.13597e-17 0.213271)
(19.7101 1.90789e-17 1.49714)
(12.6502 -1.6667e-17 2.62002)
(5.3622 0 3.89478)
(-1.79026 1.11157e-17 5.05661)
(-9.01677 8.31423e-18 6.1573)
(-16.1084 -2.3806e-19 7.28964)
(-23.1657 -6.98659e-18 8.22257)
(-30.0324 0 9.22578)
(-36.5062 3.2343e-18 10.0131)
(-42.597 0 10.8095)
(-47.8944 0 11.3919)
(-52.5593 0 11.7832)
(-56.181 -1.79918e-21 12.0491)
(-58.6922 0 11.9609)
(-60.0228 -3.91371e-17 11.7597)
(-60.0291 8.58648e-17 11.1977)
(-58.7529 9.15263e-17 10.4439)
(-56.1424 0 9.4534)
(-52.289 -8.92483e-17 8.34282)
(-47.3154 -1.61819e-16 7.12911)
(-41.5613 0 5.88631)
(-35.3176 0 4.68333)
(-29.0677 2.65705e-17 3.513)
(-23.1709 5.23069e-18 2.45877)
(-18.0776 1.60409e-17 1.48925)
(-14.2788 5.7662e-17 0.862343)
(-12.2204 0 0.820199)
(-12.5941 0 1.75192)
(-16.043 -7.25995e-19 3.80814)
(-22.6464 -4.80349e-19 6.69272)
(-32.0323 0 9.70347)
(-42.4496 8.22692e-18 11.9043)
(-51.5991 0 12.5476)
(-56.2976 0 11.4512)
(-54.7619 0 9.20658)
(-48.1038 0 6.93787)
(-41.4844 -1.24881e-19 6.1858)
(-40.1327 2.58272e-19 7.67222)
(-47.7536 2.78379e-17 10.9534)
(-61.1091 0 15.1313)
(-76.1573 6.82166e-18 17.9695)
(-88.951 0 19.9221)
(-99.2076 -3.77455e-17 21.3299)
(-107.87 2.26919e-17 22.4055)
(-114.123 -2.22123e-17 23.1349)
(-119.119 1.25617e-17 23.4157)
(-120.594 0 22.698)
(-117.167 1.91107e-17 20.9039)
(-107.764 0 18.196)
(-98.9858 -1.43289e-17 16.6337)
(-92.4854 -6.29935e-17 16.5042)
(-94.6619 2.95068e-17 18.5492)
(-106.325 0 22.2257)
(-122.879 -2.75138e-16 26.6994)
(-146.425 0 31.7082)
(-170.913 1.31999e-16 36.7593)
(-194.917 0 41.0135)
(-215.359 4.61267e-17 44.1919)
(-230.592 0 46.2945)
(-239.423 4.07681e-17 46.9037)
(-242.772 -1.17567e-16 46.5568)
(-239.047 8.30483e-17 45.0292)
(-233.34 7.99633e-17 43.4264)
(-223.323 0 41.3487)
(-215.183 -2.31004e-16 39.6753)
(-202.815 3.62948e-16 37.3772)
(-195.874 0 36.2126)
(-185.682 1.40683e-16 34.5028)
(-182.292 0 33.9966)
(-173.308 0 32.3839)
(-171.569 -1.63937e-16 32.1591)
(-164.289 0 31.0121)
(-166.296 0 31.5705)
(-160.781 9.18279e-17 30.619)
(-164.776 2.52946e-16 31.3034)
(-157.465 7.87987e-17 29.9978)
(-162.705 0 30.8637)
(-154.565 0 29.5928)
(-163.35 0 31.1549)
(-154.563 0 29.7516)
(-167.651 1.46098e-16 32.0528)
(-154.422 6.69767e-17 29.7373)
(-172.737 0 32.9042)
(-152.09 0 29.0464)
(-172.209 0 32.6011)
(-147.368 0 27.0571)
(25.9068 3.72833e-18 -28.0803)
(26.1179 0 -26.7631)
(26.8458 2.51789e-18 -25.3466)
(27.9418 0 -23.9541)
(29.3433 1.22785e-18 -22.663)
(31.4141 0 -21.3955)
(33.977 -1.53581e-19 -20.1911)
(36.9274 -2.73235e-19 -19.0907)
(40.3704 -1.62254e-18 -18.1162)
(44.2038 -1.66676e-19 -17.2677)
(48.2836 0 -16.4902)
(52.5757 0 -15.7423)
(56.9866 0 -15.0609)
(61.3044 0 -14.5008)
(65.3343 0 -14.0604)
(68.9901 0 -13.6843)
(72.2298 4.37969e-18 -13.3294)
(74.9885 -5.31712e-18 -12.9743)
(77.1699 6.31602e-18 -12.6174)
(78.6864 0 -12.2381)
(79.527 0 -11.8129)
(79.7518 6.79565e-18 -11.3192)
(79.4185 6.59754e-18 -10.7205)
(78.5894 6.32801e-18 -9.99432)
(77.2494 0 -9.16916)
(75.2416 -1.26058e-17 -8.23623)
(72.5344 -2.4612e-17 -7.22323)
(69.0759 1.22183e-17 -6.22184)
(64.822 0 -5.1502)
(59.9986 0 -4.07539)
(54.5803 0 -3.02318)
(48.5863 1.0848e-17 -1.81767)
(42.1985 0 -0.620975)
(35.1675 0 0.646458)
(27.7038 1.72175e-17 2.08262)
(19.8848 1.56571e-17 3.38505)
(11.7158 0 4.82787)
(3.54459 9.95453e-18 6.17294)
(-4.77875 -1.53806e-17 7.41211)
(-13.0525 -5.10775e-18 8.65662)
(-21.3339 3.1466e-18 9.66606)
(-29.4441 0 10.7187)
(-37.1614 0 11.5369)
(-44.4618 0 12.3454)
(-50.9275 -1.47657e-17 12.9389)
(-56.6659 0 13.3168)
(-61.2555 2.61325e-17 13.5694)
(-64.5935 3.11457e-17 13.4367)
(-66.5827 0 13.166)
(-67.0725 -4.02739e-17 12.4988)
(-66.0665 0 11.6046)
(-63.5133 0 10.4427)
(-59.4896 -8.3792e-17 9.13793)
(-54.1315 -2.62439e-20 7.71909)
(-47.7891 6.27862e-17 6.26976)
(-40.7953 0 4.87997)
(-33.6856 0 3.54175)
(-26.9111 -4.90897e-18 2.36581)
(-21.0234 0 1.32861)
(-16.6214 -5.41083e-17 0.744467)
(-14.247 0 0.901733)
(-14.6204 0 2.21114)
(-18.3789 -4.88856e-17 4.7746)
(-25.4899 1.36512e-18 8.1585)
(-35.4592 1.16802e-17 11.485)
(-46.353 0 13.6903)
(-55.8115 0 14.0115)
(-60.598 -1.27982e-17 12.3918)
(-59.1164 -1.62944e-17 9.66051)
(-52.6082 0 7.23168)
(-46.5506 -2.73589e-18 6.81734)
(-46.1483 1.69149e-17 9.03434)
(-55.0847 -2.60962e-17 13.1045)
(-69.6142 2.57527e-17 17.9828)
(-85.7496 -6.39374e-18 20.8674)
(-99.1703 0 22.7594)
(-110.002 0 24.0826)
(-119.219 -2.12627e-17 25.0852)
(-126.132 4.16007e-17 25.7935)
(-131.723 0 25.9669)
(-133.593 0 25.044)
(-130.393 -1.79004e-17 23.0123)
(-121.323 0 20.1847)
(-113.119 0 18.875)
(-107.966 5.89873e-17 19.3674)
(-111.787 2.74405e-17 22.1981)
(-125.949 0 26.7548)
(-144.712 1.28764e-16 31.9621)
(-170.989 0 37.5823)
(-197.509 -1.23545e-16 43.0646)
(-223.642 9.6749e-17 47.5377)
(-245.247 -4.31646e-17 50.6896)
(-261.537 -1.12798e-16 52.7142)
(-270.557 -2.67187e-20 53.0231)
(-273.952 1.09986e-16 52.4098)
(-269.361 0 50.4947)
(-263.094 -7.48565e-17 48.663)
(-251.707 1.40334e-16 46.2821)
(-242.875 1.0803e-16 44.4453)
(-228.848 -3.39467e-16 41.8624)
(-221.335 0 40.6421)
(-209.648 1.3196e-16 38.7233)
(-206.008 0 38.2047)
(-195.465 0 36.3373)
(-193.664 1.53235e-16 36.1354)
(-184.859 0 34.7832)
(-187.43 0 35.4819)
(-180.464 -8.64193e-17 34.2906)
(-185.256 -1.16357e-20 35.095)
(-176.133 2.49322e-19 33.4722)
(-182.145 -4.35246e-17 34.454)
(-172.088 0 32.9054)
(-181.864 9.83331e-17 34.6271)
(-171.366 8.14464e-17 32.9775)
(-185.567 -1.36466e-16 35.43)
(-170.824 -6.3284e-17 32.8844)
(-189.956 0 36.1257)
(-168.239 -7.17127e-17 32.0675)
(-188.387 0 35.576)
(-163.544 0 29.7959)
(27.1413 -3.50044e-18 -30.0749)
(27.3039 2.92241e-18 -28.3841)
(28.0095 -3.33236e-20 -26.7633)
(28.9485 1.76165e-18 -25.3026)
(30.1437 0 -23.9541)