/*--------------------------------*- C++ -*----------------------------------*\
| =========                 |                                                 |
| \\      /  F ield         | OpenFOAM: The Open Source CFD Toolbox           |
|  \\    /   O peration     | Version:  2412                                  |
|   \\  /    A nd           | Website:  www.openfoam.com                      |
|    \\/     M anipulation  |                                                 |
\*---------------------------------------------------------------------------*/
FoamFile
{
    version     2.0;
    format      ascii;
    arch        "LSB;label=32;scalar=64";
    class       volVectorField;
    location    "0.6";
    object      ddtCorrDdt0(U);
}
// * * * * * * * * * * * * * * * * * * * * * * * * * * * * * * * * * * * * * //

dimensions      [0 1 -2 0 0 0 0];

internalField   nonuniform List<vector> 
12600
(
(-1.62581 0 -2.61952)
(-2.78406 -1.00647e-18 0.439628)
(0.854787 6.49055e-19 1.325)
(1.01435 0 0.689023)
(0.516571 -1.17674e-19 0.311804)
(0.340322 0 0.0535534)
(0.223653 -6.08079e-20 -0.0920732)
(0.332607 0 -0.166328)
(0.552542 0 -0.210907)
(0.684417 0 -0.22887)
(0.760092 0 -0.209874)
(0.790127 1.97514e-20 -0.232934)
(0.775877 1.41056e-19 -0.252224)
(0.731976 0 -0.24369)
(0.668582 -6.25057e-19 -0.215739)
(0.5502 0 -0.227667)
(0.549174 5.08812e-20 -0.184612)
(0.581383 0 -0.187771)
(0.120745 -1.95512e-19 -0.375624)
(0.798715 0 0.190352)
(1.14679 0 -0.0442033)
(-3.72135 0 -2.22273)
(7.11582 3.97611e-17 4.86621)
(-5.98578 9.7539e-17 -6.66691)
(3.57436 -1.22831e-17 5.95497)
(-0.106782 -6.28074e-17 -4.31714)
(-1.82024 0 1.8974)
(2.09583 0 -0.0347322)
(-1.88749 0 -0.554423)
(1.36524 -3.53435e-18 0.690738)
(-0.474966 2.65456e-17 -0.339182)
(-0.606017 0 -0.0147962)
(0.472997 0 0.153528)
(-0.028251 5.7661e-18 -0.0427693)
(-0.274374 4.75471e-19 -0.0443271)
(0.0538567 0 -0.000855339)
(0.134218 0 -0.0163223)
(-0.057097 3.65424e-18 -0.0468292)
(-0.0992798 0 -0.0416387)
(-0.00632281 1.16072e-19 -0.0182417)
(-0.0380272 1.12295e-18 -0.0130886)
(-0.145395 6.5652e-19 -0.0092025)
(-0.154388 0 0.026991)
(-0.135717 -8.25048e-19 0.0532127)
(-0.166858 -2.85361e-19 0.057921)
(-0.183438 1.20266e-18 0.0710938)
(-0.170443 -1.79875e-18 0.0826033)
(-0.166476 0 0.072801)
(-0.125531 1.77658e-18 0.0683189)
(-0.056485 -8.66266e-19 0.0738759)
(-0.0714701 0 0.0336514)
(-0.0432964 8.46592e-20 0.0154976)
(0.128099 1.38579e-18 0.0387506)
(0.206833 0 0.0483563)
(-0.0106539 3.24087e-18 -0.0730575)
(-0.00452974 0 -0.0465507)
(0.268782 0 0.112594)
(0.0213561 1.02055e-19 0.0864646)
(-0.419598 -2.34789e-19 0.0377943)
(-0.176528 1.53438e-17 0.0604887)
(0.117215 1.52291e-17 0.149334)
(-0.399834 -4.21425e-17 0.24384)
(-0.607355 0 0.0683207)
(0.502697 4.76608e-17 -0.116553)
(1.33122 -7.49293e-17 -0.155371)
(0.469825 1.15326e-16 -0.956634)
(0.664677 9.82428e-17 -1.54048)
(3.17623 0 -0.535467)
(2.38443 0 -0.924519)
(0.757695 0 -1.16674)
(0.021385 0 -1.53184)
(3.23278 0 1.33918)
(1.94281 6.82987e-16 0.598119)
(-4.70795 -1.53237e-16 -2.86798)
(1.34185 0 0.448784)
(5.14181 0 0.332978)
(-0.981726 -7.45519e-16 -0.65031)
(-1.45666 6.87942e-18 -1.94384)
(7.85842 1.65211e-15 -2.62894)
(5.48572 0 -0.377617)
(-1.33622 0 -1.86615)
(-12.9213 0 6.72669)
(-29.9901 -3.7023e-18 17.1246)
(-34.0064 0 20.3503)
(-70.8354 0 35.746)
(92.2055 4.72926e-15 -46.1618)
(84.4875 9.42076e-20 -44.0483)
(-31.0915 0 9.957)
(5.84932 0 -2.59823)
(4.52477 -2.33229e-15 3.26065)
(-14.3588 4.55147e-15 5.98257)
(-4.99467 1.88702e-16 1.48922)
(-2.18119 -2.46081e-15 2.02286)
(8.67965 -3.69415e-17 -2.82922)
(20.6435 8.82919e-18 -12.1824)
(26.3005 4.6368e-16 -16.051)
(25.6248 0 -13.72)
(13.9934 0 -6.42201)
(-5.34095 0 0.651107)
(-15.1632 2.01989e-15 7.21742)
(-19.3275 -8.12808e-16 11.9396)
(-19.5086 -1.18986e-15 11.3362)
(-14.7673 -3.61881e-18 8.44482)
(-9.20481 0 4.7772)
(-5.33137 0 2.77342)
(-2.79796 0 1.70099)
(-2.50773 9.82996e-16 1.26606)
(-3.19129 0 1.79048)
(-1.46468 1.53465e-16 0.86088)
(0.228154 0 -0.438954)
(5.80897 0 -3.48188)
(7.74661 -9.08416e-17 -4.20473)
(0.997306 0 -0.573622)
(-3.72803 0 2.13166)
(-2.8933 0 1.60293)
(-2.14382 2.5795e-16 1.18469)
(-0.913567 0 0.465812)
(-0.84266 2.75723e-16 0.450958)
(-0.603594 0 0.37198)
(-0.322356 7.31027e-19 0.238461)
(-6.25139 -5.44223e-19 -4.36751)
(-4.81604 6.41575e-19 0.357593)
(-2.36648 -5.99739e-19 2.59734)
(-1.8803 0 1.99393)
(-1.6246 -6.71121e-19 1.33555)
(-1.31178 2.85642e-19 0.735551)
(-0.992448 6.34446e-20 0.345863)
(-0.516867 -1.03979e-19 0.123056)
(-0.025443 0 -0.0359757)
(0.308343 0 -0.129607)
(0.506802 0 -0.183215)
(0.610722 0 -0.298711)
(0.683287 0 -0.398793)
(0.752889 0 -0.403283)
(0.763064 -7.08153e-20 -0.378549)
(0.691126 0 -0.425719)
(0.748002 -7.76559e-20 -0.381185)
(0.729618 0 -0.436653)
(0.399061 -3.11966e-20 -0.858443)
(1.51985 -1.36676e-18 0.334641)
(0.960958 0 -0.108433)
(-3.20327 8.61472e-18 -4.87216)
(9.96224 -1.60591e-17 10.8502)
(-10.5416 -4.40639e-17 -15.7573)
(10.0263 -6.04977e-17 15.1865)
(-5.62703 0 -12.3531)
(1.99905 2.32972e-17 6.48006)
(0.690371 0 -1.40144)
(-1.64211 0 -0.214553)
(1.56629 0 1.09298)
(-0.967147 -1.31267e-17 -0.721573)
(-0.3844 0 0.318077)
(0.413737 0 0.0776347)
(-0.0902852 0 -0.155517)
(-0.121256 0 0.0264301)
(0.188554 0 -0.0690017)
(0.248827 0 -0.180895)
(0.135633 -3.75972e-18 -0.149276)
(0.143062 0 -0.123163)
(0.219452 1.77224e-18 -0.150911)
(0.178365 -2.30983e-18 -0.150441)
(0.0823946 -6.35899e-19 -0.0999942)
(0.0577371 0 -0.0407829)
(0.0314914 0 -0.00537449)
(-0.0406837 5.93953e-19 0.0270043)
(-0.0922727 -1.22801e-18 0.0828038)
(-0.124911 1.84113e-18 0.125041)
(-0.172346 0 0.127373)
(-0.170518 -1.9127e-18 0.133576)
(-0.129306 0 0.158641)
(-0.169026 0 0.120642)
(-0.1626 -1.9906e-18 0.0764331)
(-0.00197841 0 0.0879079)
(0.0664181 0 0.125084)
(-0.216791 -3.27443e-18 -0.0524928)
(-0.241767 0 -0.0080764)
(-0.0238978 0 0.251728)
(-0.386745 3.68484e-19 0.329824)
(-0.973967 2.87093e-18 0.345536)
(-0.87682 2.80851e-19 0.378199)
(-0.604687 0 0.552136)
(-1.02127 4.37638e-17 0.729192)
(-1.0014 -4.85421e-17 0.264855)
(0.721609 0 -0.416104)
(2.5904 1.52725e-16 -0.840321)
(2.84265 -4.90266e-18 -2.38832)
(3.85445 0 -4.2828)
(7.42409 1.80008e-17 -3.03839)
(6.84019 0 -3.33737)
(5.04299 0 -3.34138)
(3.1739 0 -4.26497)
(6.69186 0 1.76165)
(3.03482 -1.35457e-15 0.321768)
(-5.33266 -8.68741e-18 -5.22527)
(2.19464 0 0.402322)
(6.74274 0 -0.542545)
(2.65057 -7.34676e-16 -2.03752)
(4.32672 1.05068e-17 -5.47242)
(14.3956 1.09624e-17 -7.52737)
(9.77668 0 -2.25925)
(-0.798806 0 -1.52628)
(-35.4351 0 21.4749)
(-87.1887 7.81608e-18 51.055)
(-100.222 3.96986e-15 60.3861)
(-212.2 1.09566e-15 113.707)
(267.584 -4.56939e-15 -145.377)
(245.844 1.17122e-17 -133.725)
(-67.7286 1.39549e-15 34.9194)
(15.6322 0 -8.96547)
(0.190184 2.24173e-15 6.83139)
(-36.0777 0 17.644)
(-10.0092 -1.80931e-16 5.07173)
(-6.46668 0 5.00694)
(26.7967 2.24437e-16 -14.1557)
(70.2463 1.82188e-15 -41.4749)
(86.0532 0 -50.8404)
(73.346 0 -41.3848)
(32.1292 2.07472e-16 -16.4145)
(-21.1687 -2.48143e-15 6.43657)
(-45.7165 -1.97883e-15 25.6362)
(-61.0479 7.71958e-16 36.5808)
(-59.8077 1.12904e-15 34.6625)
(-44.1916 0 25.4794)
(-26.179 2.77921e-16 14.523)
(-16.0207 0 8.66066)
(-9.07093 0 5.34135)
(-7.6142 -9.30559e-16 4.24592)
(-9.74827 0 5.59485)
(-3.96282 -1.86894e-18 2.22707)
(3.05439 -3.66014e-16 -2.13465)
(19.7122 0 -11.6922)
(21.8642 0 -12.4079)
(1.29016 0 -0.530272)
(-11.5806 2.21685e-16 6.79131)
(-8.40496 5.6545e-18 4.80169)
(-6.21225 -2.42496e-16 3.52869)
(-2.60809 0 1.42604)
(-2.53663 -2.58973e-16 1.43972)
(-1.83944 0 1.08375)
(-1.18634 -6.17693e-16 0.737418)
(-6.35593 1.17265e-18 -1.44726)
(-5.86499 -3.51439e-19 0.572816)
(-5.48683 -1.71457e-19 2.25572)
(-5.00435 0 2.63359)
(-4.17652 -3.19088e-19 2.40693)
(-3.33969 -3.17959e-20 1.86587)
(-2.58052 0 1.36866)
(-1.80613 9.87073e-20 1.02025)
(-1.1164 0 0.761182)
(-0.640545 -5.99257e-20 0.603554)
(-0.358114 0 0.466992)
(-0.162922 0 0.277782)
(0.00589491 0 0.0654773)
(0.171913 0 -0.0307827)
(0.253839 3.84828e-19 -0.0597728)
(0.286473 0 -0.121718)
(0.40753 0 -0.149178)
(0.322963 0 -0.37839)
(0.337511 2.23174e-19 -0.860627)
(1.63233 -1.88439e-18 0.373003)
(0.0579908 0 -0.12816)
(-0.967405 5.14681e-18 -4.51024)
(7.23181 0 9.20438)
(-9.03583 -1.52904e-17 -14.7428)
(11.336 0 16.5856)
(-9.31467 0 -16.1821)
(6.02934 -2.20935e-17 10.3579)
(-2.01697 0 -3.86606)
(-0.440806 0 1.34998)
(0.905814 5.08128e-18 0.494874)
(-1.05761 0 -0.660951)
(-0.0952968 0 0.798555)
(0.152486 0 -0.197847)
(-0.0740731 0 -0.281069)
(0.0717814 -9.83876e-19 0.148418)
(0.258779 0 -0.149474)
(0.325672 0 -0.393703)
(0.32886 3.42954e-18 -0.26509)
(0.363073 0 -0.207748)
(0.400707 -1.4176e-18 -0.327313)
(0.372866 1.38915e-19 -0.349642)
(0.309226 6.02079e-19 -0.249403)
(0.26244 0 -0.199763)
(0.203415 0 -0.185396)
(0.122787 -2.86031e-19 -0.125191)
(0.0569011 0 -0.0310977)
(-0.00544013 -1.7416e-18 0.0371494)
(-0.0796833 0 0.0689228)
(-0.102461 -9.27754e-20 0.0990731)
(-0.085274 0 0.14707)
(-0.13096 0 0.164316)
(-0.158578 0 0.119642)
(-0.0476194 -1.25472e-18 0.0984802)
(-0.0142862 0 0.165363)
(-0.296821 0 0.106966)
(-0.40765 0 0.137171)
(-0.347577 0 0.328024)
(-0.765356 -3.03605e-17 0.586152)
(-1.43362 0 0.759722)
(-1.46467 4.79508e-19 0.791309)
(-1.24839 0 0.92283)
(-1.58801 -2.11589e-17 1.07411)
(-1.29409 4.5768e-17 0.404594)
(0.981254 0 -0.77734)
(3.72575 -1.49575e-16 -1.77107)
(5.3391 -4.77146e-17 -3.40341)
(7.27523 0 -6.11673)
(11.0193 -1.69526e-17 -6.09138)
(10.9021 0 -5.79768)
(9.1002 0 -5.01601)
(6.0799 0 -6.4249)
(8.45565 0 0.22028)
(3.33446 -3.2238e-19 -0.654178)
(-4.74917 8.16954e-18 -5.06574)
(2.56599 0 -0.171466)
(7.85703 0 -2.29957)
(6.10581 -1.38674e-17 -3.69665)
(9.82489 -1.76676e-15 -8.34854)
(19.8284 -7.69119e-16 -10.7524)
(11.2337 0 -3.56253)
(-3.2691 0 3.2398)
(-53.2328 0 34.727)
(-126.938 -6.0723e-16 74.4236)
(-152.534 3.68524e-17 91.437)
(-354.323 -1.02783e-15 183.709)
(416.097 0 -241.311)
(397.379 2.9493e-15 -206.927)
(-87.2718 -1.30827e-15 56.7088)
(23.4309 0 -15.9299)
(-6.1588 0 9.70452)
(-54.2519 -3.97239e-15 26.3185)
(-15.3926 0 8.53246)
(-8.57229 2.1811e-15 4.71949)
(48.4757 -1.76983e-17 -30.9422)
(121.965 -1.67883e-15 -72.9307)
(141.803 -4.1305e-16 -82.155)
(112.084 0 -61.3784)
(40.7831 -1.94162e-16 -18.86)
(-41.1115 2.3219e-15 18.3743)
(-74.7681 1.8636e-15 44.7922)
(-98.0148 0 57.6139)
(-95.3475 1.04491e-15 54.026)
(-69.9964 0 39.1774)
(-41.0009 -2.59878e-16 22.2965)
(-26.0235 1.17596e-16 13.8058)
(-15.0994 0 8.62456)
(-12.7828 8.6984e-16 7.28921)
(-15.7626 0 8.90737)
(-5.36133 -2.6459e-16 2.66301)
(7.74272 3.42027e-16 -5.2494)
(33.44 0 -20.0059)
(33.2418 0 -18.3538)
(-0.136381 0 1.02678)
(-18.9483 -7.68563e-19 11.1685)
(-13.3358 -5.2816e-18 7.39034)
(-9.85845 2.24175e-16 5.41659)
(-4.18095 0 2.22397)
(-4.17851 -2.41086e-16 2.36149)
(-2.81275 0 1.58462)
(-2.01877 -2.8238e-19 1.18704)
(-5.70999 -6.21948e-19 0.599179)
(-6.0006 -1.11605e-19 0.969086)
(-6.62223 9.38069e-20 2.0079)
(-6.62354 -1.83316e-19 2.76325)
(-6.04987 -2.13387e-19 2.87538)
(-5.18429 -3.97287e-19 2.57358)
(-4.25191 0 2.14041)
(-3.2953 0 1.75305)
(-2.43531 0 1.44861)
(-1.79272 5.67497e-20 1.26667)
(-1.36116 0 1.17458)
(-1.06869 0 1.0108)
(-0.814419 0 0.734818)
(-0.575381 0 0.488484)
(-0.410447 0 0.368564)
(-0.249698 4.96207e-19 0.338166)
(-0.0848228 -5.58652e-19 0.301285)
(-0.28056 0 -0.171216)
(0.14337 0 -0.678229)
(1.49849 3.01399e-18 0.496977)
(-1.2004 -2.24657e-18 -0.549922)
(1.26247 -1.26231e-17 -2.20796)
(2.77249 -2.31129e-17 3.90089)
(-4.18727 1.44842e-17 -8.07376)
(7.2467 2.89936e-17 10.9863)
(-7.7227 2.61098e-17 -11.854)
(6.91368 0 9.31813)
(-4.2804 -1.02763e-18 -4.88173)
(0.457856 0 2.08597)
(0.113779 -4.80901e-18 0.0789094)
(-1.01236 0 -0.460206)
(-0.0791005 0 0.9309)
(-0.0291661 0 -0.17654)
(-0.0721886 3.12222e-18 -0.385381)
(0.135906 9.30799e-19 0.102651)
(0.30474 0 -0.159111)
(0.404229 0 -0.497619)
(0.459895 -3.24307e-18 -0.402125)
(0.513004 0 -0.311397)
(0.54967 6.6387e-20 -0.443565)
(0.535887 9.04729e-19 -0.495189)
(0.483993 0 -0.388657)
(0.432409 0 -0.318833)
(0.358242 0 -0.302174)
(0.268605 0 -0.23022)
(0.18735 -9.48226e-19 -0.114853)
(0.101356 0 -0.0265551)
(0.00536952 1.85645e-18 0.0241103)
(-0.0331086 1.79516e-18 0.0731422)
(-0.0311609 0 0.138915)
(-0.0933611 0 0.177399)
(-0.139827 0 0.145584)
(-0.046166 1.18379e-18 0.132523)
(-0.0440762 2.50402e-18 0.21663)
(-0.345701 1.64897e-18 0.238551)
(-0.531074 0 0.272078)
(-0.566716 3.02098e-18 0.467822)
(-1.06784 2.95413e-17 0.8076)
(-1.83324 0 1.06017)
(-1.94213 -2.93426e-17 1.11839)
(-1.74711 0 1.19882)
(-2.0118 2.21043e-17 1.27925)
(-1.47083 -4.37341e-17 0.397996)
(1.33989 0 -1.19516)
(4.89187 7.15482e-17 -2.70386)
(7.54867 4.52731e-17 -4.74864)
(10.509 0 -7.82684)
(14.6231 0 -8.49919)
(14.6776 0 -8.01674)
(12.6278 1.49604e-17 -6.60518)
(8.45842 1.28495e-16 -8.4088)
(9.79838 0 -1.08668)
(3.60858 6.03172e-16 -0.780521)
(-5.46339 -2.39262e-16 -6.54781)
(2.96622 0 -0.508776)
(9.29296 0 -3.55721)
(9.21836 6.61258e-16 -5.88801)
(14.5973 -5.40761e-18 -11.3641)
(23.928 0 -12.8416)
(10.4837 0 -2.71577)
(-10.2373 0 9.17488)
(-66.0788 0 46.5897)
(-146.524 -3.20305e-17 88.4658)
(-189.722 -3.527e-15 119.279)
(-487.12 0 244.164)
(531.458 0 -338.648)
(535.618 0 -271.956)
(-90.7537 -1.33248e-15 71.2734)
(29.979 0 -22.5795)
(-12.2494 1.75293e-15 15.5572)
(-68.5496 3.71996e-15 33.3261)
(-20.5549 -2.31054e-16 11.2164)
(-6.1583 -2.04183e-15 3.20126)
(75.1551 -1.55911e-16 -50.6764)
(174.513 1.57115e-15 -105.269)
(190.628 3.86501e-16 -109.903)
(138.939 0 -73.9431)
(38.7664 0 -14.5932)
(-62.6147 1.43181e-15 37.613)
(-101.407 -8.64609e-16 61.8985)
(-128.366 -6.33258e-16 75.7331)
(-124.826 -1.24172e-17 70.3321)
(-91.6307 0 50.6023)
(-53.2498 0 28.5074)
(-35.0313 -1.09918e-16 18.3636)
(-20.8991 0 11.716)
(-17.978 -8.04074e-16 10.3242)
(-21.0492 0 11.8013)
(-5.55702 3.30669e-18 2.31215)
(14.0037 0 -9.58101)
(46.4221 -3.56109e-16 -27.9776)
(41.4868 -7.81741e-17 -22.5135)
(-2.84119 -1.7195e-16 3.61314)
(-25.489 -9.52014e-19 15.1552)
(-17.5543 0 9.67763)
(-12.9906 -2.09351e-16 7.05696)
(-5.56598 -8.50416e-17 2.90222)
(-5.69976 2.25118e-16 3.2237)
(-3.48282 0 1.93306)
(-2.78677 -1.01153e-19 1.61475)
(-5.21909 0 1.29134)
(-5.65103 7.6577e-20 1.3352)
(-6.39631 0 2.04231)
(-6.772 1.73202e-19 2.68206)
(-6.69951 4.86863e-19 2.86212)
(-6.23981 1.61397e-19 2.77267)
(-5.54756 0 2.55042)
(-4.67152 0 2.29496)
(-3.76995 -1.60292e-19 2.06397)
(-3.00902 -5.92067e-20 1.90511)
(-2.45618 -8.94861e-20 1.83352)
(-2.07391 -2.25651e-19 1.7308)
(-1.74419 -2.66443e-20 1.47942)
(-1.44099 0 1.11648)
(-1.18713 0 0.829496)
(-0.871556 -1.05727e-18 0.803803)
(-0.688956 -3.53263e-19 0.825425)
(-1.0082 0 0.130197)
(-0.105262 -1.14077e-18 -0.339899)
(1.02598 5.836e-18 0.657248)
(-2.33128 2.12372e-18 -1.30549)
(3.03136 0 0.887529)
(-1.07499 2.18497e-17 -0.816141)
(0.0307789 2.47086e-17 -1.68609)
(2.39292 -2.74074e-17 3.87627)
(-3.57272 6.50921e-18 -3.72949)
(3.93825 0 3.95708)
(-3.89088 -5.10639e-18 -2.24154)
(0.806512 0 1.96649)
(-0.469691 -3.02365e-18 0.0987807)
(-0.947578 0 -0.263299)
(-0.216268 0 0.831003)
(-0.169192 0 -0.017878)
(-0.0974298 -2.94888e-18 -0.458247)
(0.13676 0 -0.0339272)
(0.32962 0 -0.149366)
(0.463201 0 -0.540152)
(0.549665 0 -0.534036)
(0.62236 1.09337e-18 -0.411566)
(0.667177 9.46951e-19 -0.519696)
(0.662974 0 -0.603386)
(0.615688 -7.18857e-19 -0.508785)
(0.557487 0 -0.420163)
(0.469511 0 -0.397539)
(0.367907 0 -0.325075)
(0.270701 1.06115e-19 -0.197956)
(0.163889 0 -0.0931669)
(0.0494523 -1.75042e-18 -0.0284345)
(-0.000389706 0 0.0342845)
(-0.00757567 0 0.115005)
(-0.0806355 -3.97559e-19 0.171764)
(-0.133189 0 0.163599)
(-0.0445036 0 0.168027)
(-0.0647025 7.81242e-20 0.267351)
(-0.394155 -1.55314e-18 0.338198)
(-0.628383 0 0.398957)
(-0.720887 -1.32347e-19 0.626823)
(-1.28929 -2.85939e-17 1.02516)
(-2.13832 0 1.32343)
(-2.30161 1.40703e-17 1.38578)
(-2.09877 0 1.40822)
(-2.30099 -2.07946e-17 1.37095)
(-1.54353 4.11356e-17 0.282429)
(1.7356 0 -1.6873)
(5.98942 -7.10702e-17 -3.68138)
(9.53045 2.20916e-18 -6.14616)
(13.5355 0 -9.30655)
(17.9575 0 -10.6412)
(18.1251 0 -9.96374)
(15.7098 -1.71283e-17 -7.92022)
(10.5441 3.13714e-17 -9.82397)
(10.9209 0 -1.90266)
(3.5754 -5.66223e-16 -0.61179)
(-4.33448 5.34942e-16 -4.38222)
(3.35177 0 -1.04038)
(10.8411 0 -4.98357)
(12.3555 0 -8.25837)
(18.9563 -4.71864e-18 -14.1819)
(26.7827 0 -13.8947)
(7.41087 0 0.167715)
(-20.3904 0 17.345)
(-74.1923 0 55.9683)
(-145.343 3.08732e-16 91.1859)
(-216.145 -3.36505e-15 144.43)
(-592.595 0 284.002)
(615.454 0 -421.802)
(662.218 0 -325.516)
(-77.7659 -1.0447e-16 79.5268)
(35.6872 0 -28.5361)
(-18.6571 -1.64099e-15 22.3298)
(-79.6564 0 38.2045)
(-24.6968 2.16238e-16 12.9309)
(-0.716599 0 -3.62231)
(105.832 5.4971e-17 -73.9133)
(225.836 0 -137.452)
(230.729 0 -131.555)
(152.971 0 -77.4556)
(27.3636 0 -2.93036)
(-86.1389 -1.33882e-15 58.5833)
(-123.697 0 76.3919)
(-152.21 5.92004e-16 89.6847)
(-148.583 -9.01659e-16 82.7124)
(-109.841 0 59.2846)
(-63.1754 0 32.8526)
(-43.1222 0 22.1537)
(-26.5747 0 14.5883)
(-23.1609 7.75207e-18 13.305)
(-25.6178 0 14.1037)
(-4.7058 2.18621e-16 1.00444)
(21.4175 0 -14.9797)
(58.2191 6.64064e-16 -35.2609)
(47.0028 7.30127e-17 -24.509)
(-6.42507 1.60587e-16 6.67036)
(-31.0816 -1.79066e-16 18.5839)
(-21.2319 0 11.4941)
(-15.7026 0 8.34642)
(-6.75387 1.60076e-16 3.41855)
(-7.07284 2.08646e-16 3.98298)
(-3.88346 8.18766e-17 2.09082)
(-3.48422 2.52083e-16 1.99758)
(-5.01548 0 1.48032)
(-5.20971 5.58332e-19 1.60359)
(-5.75685 0 2.16038)
(-6.17355 0 2.6179)
(-6.35 0 2.7402)
(-6.32749 0 2.71909)
(-6.13377 0 2.66097)
(-5.6549 8.79591e-20 2.58781)
(-4.96751 1.51254e-19 2.52006)
(-4.25122 1.7054e-19 2.46229)
(-3.65718 1.09207e-19 2.42359)
(-3.21713 2.12981e-19 2.378)
(-2.84352 2.5158e-20 2.21623)
(-2.50839 0 1.83286)
(-2.1561 0 1.3751)
(-1.65678 1.09734e-18 1.27498)
(-1.50545 2.02495e-18 1.35603)
(-1.89041 0 0.55974)
(-0.471773 1.07692e-18 0.1811)
(0.0407905 -5.5092e-18 0.7513)
(-2.92166 0 -1.69729)
(3.44356 8.92667e-19 3.19005)
(-3.77673 0 -3.98139)
(2.96381 -7.56879e-18 3.33625)
(-1.6693 2.42294e-17 -1.7705)
(-0.431652 -4.97154e-18 2.55761)
(0.735414 0 -0.97162)
(-2.06471 5.73443e-18 1.36738)
(0.00708968 -5.11012e-19 1.11866)
(-0.854842 5.00669e-18 0.366411)
(-0.953615 1.19393e-18 -0.0782643)
(-0.436256 0 0.595887)
(-0.289938 -8.69481e-19 0.1759)
(-0.141067 0 -0.457609)
(0.103979 0 -0.210757)
(0.33146 0 -0.161926)
(0.499894 0 -0.539214)
(0.610015 0 -0.64372)
(0.700915 3.33775e-19 -0.511312)
(0.756494 -3.91274e-19 -0.572415)
(0.760698 0 -0.678223)
(0.71625 1.32757e-18 -0.606488)
(0.65264 0 -0.499991)
(0.553588 0 -0.464983)
(0.440898 0 -0.39581)
(0.330149 7.42412e-19 -0.26259)
(0.206168 0 -0.143515)
(0.0765768 0 -0.0679539)
(0.0186233 0 0.00330766)
(0.00600361 0 0.0944539)
(-0.0745302 6.61783e-19 0.165455)
(-0.129752 0 0.178391)
(-0.0401581 0 0.202122)
(-0.0744162 -2.29303e-18 0.318029)
(-0.427424 0 0.429201)
(-0.692632 0 0.526368)
(-0.822028 -4.87183e-18 0.78474)
(-1.4434 1.36155e-17 1.21948)
(-2.35689 0 1.5448)
(-2.55349 0 1.59554)
(-2.32957 0 1.54231)
(-2.47559 2.13513e-17 1.37374)
(-1.54783 0 0.0837281)
(2.11075 0 -2.23395)
(6.94535 1.35061e-16 -4.67566)
(11.256 -8.69231e-17 -7.52871)
(15.6554 0 -11.6106)
(20.8659 0 -12.5876)
(21.182 0 -11.6477)
(18.3035 2.886e-18 -9.01157)
(12.3669 -1.42692e-16 -10.6775)
(11.8456 2.82354e-17 -2.29927)
(3.52155 5.31184e-16 -0.385158)
(-2.34526 -2.91094e-16 -0.551395)
(3.6329 6.47521e-16 -1.69054)
(12.6473 0 -6.60832)
(15.62 0 -10.8569)
(22.9777 7.40851e-16 -16.8224)
(28.4853 0 -13.908)
(1.93983 0 4.95411)
(-33.0494 0 26.9416)
(-76.7903 0 61.5955)
(-121.794 0 82.2838)
(-235.997 6.31471e-15 169.249)
(-641.54 0 288.048)
(654.484 -2.48484e-15 -484.813)
(774.718 0 -367.611)
(-49.1285 -1.23349e-16 82.7881)
(41.3072 3.91143e-15 -33.0748)
(-24.5755 0 29.766)
(-88.0394 0 41.3871)
(-27.5671 0 13.2888)
(9.05992 0 -14.5365)
(140.401 5.77225e-17 -100.151)
(273.894 0 -168.532)
(259.727 0 -145.874)
(153.839 0 -71.6449)
(7.60965 0 13.907)
(-111.021 0 76.3129)
(-140.064 0 87.5269)
(-169.451 0 100.29)
(-166.656 0 91.919)
(-125.047 -8.39286e-18 66.0665)
(-70.8522 0 35.7319)
(-50.3201 0 25.2928)
(-32.1431 0 17.332)
(-28.3168 6.94545e-16 16.2426)
(-29.4208 0 15.8364)
(-2.85613 -1.00302e-16 -1.11448)
(29.606 0 -21.0394)
(68.4623 -2.44305e-18 -41.6377)
(49.8851 0 -24.7852)
(-9.78206 -1.50589e-16 10.843)
(-35.55 0 21.5074)
(-24.4119 0 12.9567)
(-17.9861 0 9.36389)
(-7.72396 -7.53159e-17 3.77929)
(-8.2674 -3.88515e-16 4.6283)
(-4.02093 -1.54654e-16 2.09303)
(-4.08481 2.35081e-16 2.33577)
(-4.91522 0 1.63123)
(-4.8621 -4.0415e-19 1.77737)
(-5.19804 0 2.23211)
(-5.45203 0 2.61181)
(-5.59387 -3.15902e-19 2.70508)
(-5.7636 -2.06942e-19 2.67388)
(-5.97544 6.89301e-20 2.66686)
(-5.99226 -1.79931e-19 2.70213)
(-5.73266 0 2.78324)
(-5.28329 2.7137e-20 2.87408)
(-4.80422 -2.33241e-20 2.92181)
(-4.39613 0 2.93587)
(-4.05378 0 2.87981)
(-3.76792 0 2.56858)
(-3.34419 0 2.0289)
(-2.65817 -1.38618e-19 1.80186)
(-2.58509 2.26742e-19 1.84907)
(-2.9364 6.79103e-19 1.13042)
(-1.08721 8.74835e-19 0.912543)
(-1.45995 0 0.742718)
(-2.97963 -5.41734e-18 -1.28695)
(2.2583 -8.39626e-19 3.94867)
(-4.8801 0 -4.65416)
(3.82659 -1.00648e-17 5.8916)
(-4.25344 -1.08552e-17 -4.82641)
(1.30634 -2.30479e-17 6.23523)
(-1.53698 0 -3.05247)
(-1.26922 0 2.51575)
(-0.976548 4.82432e-19 0.622749)
(-1.1055 -6.45659e-19 0.560663)
(-1.02544 -1.48835e-18 0.188188)
(-0.664115 0 0.392195)
(-0.454234 1.02695e-18 0.283477)
(-0.225543 0 -0.372919)
(0.0344608 0 -0.374421)
(0.294256 6.02489e-19 -0.215174)
(0.499826 0 -0.511006)
(0.635289 1.38043e-18 -0.715382)
(0.743217 1.65406e-19 -0.606921)
(0.810391 -4.77872e-20 -0.612712)
(0.825061 0 -0.72259)
(0.785092 -7.7596e-20 -0.680355)
(0.718937 0 -0.560898)
(0.612676 0 -0.507891)
(0.492288 0 -0.442327)
(0.372123 0 -0.308145)
(0.23539 0 -0.177542)
(0.0944548 1.47718e-18 -0.093614)
(0.0315131 0 -0.0186533)
(0.016175 0 0.0774422)
(-0.0695575 -2.70381e-19 0.157916)
(-0.125551 0 0.187797)
(-0.0314174 -1.34235e-18 0.229567)
(-0.0725646 2.24761e-18 0.362718)
(-0.4412 -1.61586e-18 0.51266)
(-0.724652 0 0.648384)
(-0.876767 2.18083e-18 0.929739)
(-1.5366 1.33458e-17 1.38356)
(-2.49658 0 1.72268)
(-2.71132 0 1.75009)
(-2.45983 0 1.61066)
(-2.56478 -2.00477e-17 1.30606)
(-1.52474 0 -0.172692)
(2.41206 0 -2.80467)
(7.69496 -6.41048e-17 -5.65144)
(12.5323 8.7474e-17 -8.8396)
(17.9443 0 -12.6901)
(23.4309 0 -14.3048)
(23.825 0 -13.0455)
(20.4131 0 -9.89537)
(13.9561 -1.94321e-16 -11.0033)
(12.5426 -2.64738e-17 -2.46521)
(3.37163 0 -0.151085)
(-2.10167 0 0.117207)
(4.1163 -6.06857e-16 -2.5283)
(14.7987 0 -8.52913)
(19.0918 5.96602e-16 -13.7028)
(26.7229 7.01835e-16 -19.2539)
(29.1101 0 -12.8131)
(-5.79406 0 11.7008)
(-46.9632 0 37.0977)
(-71.5893 0 61.4844)
(-75.0864 0 61.2782)
(-253.228 -2.96104e-15 195.308)
(-600.241 0 237.94)
(621.139 4.64895e-15 -514.519)
(867.872 0 -397.808)
(-7.00864 -1.33873e-16 82.3393)
(46.8631 3.25298e-17 -37.0451)
(-29.3516 0 37.2017)
(-94.3776 -2.61578e-15 43.2229)
(-28.5167 0 11.9096)
(24.9361 0 -26.9178)
(177.248 -1.73939e-16 -129.289)
(316.986 0 -196.329)
(275.927 0 -151.34)
(143.164 0 -56.4713)
(-17.0318 0 34.821)
(-132.726 0 92.856)
(-150.227 0 94.7568)
(-181.32 0 107.671)
(-179.832 0 98.0787)
(-138.251 7.84134e-18 71.2336)
(-76.7519 0 36.979)
(-56.595 0 28.041)
(-37.6178 0 19.9368)
(-33.5036 -6.28117e-16 19.138)
(-32.5478 1.67175e-16 16.9666)
(-0.21893 8.5187e-17 -4.04368)
(38.0732 -2.49159e-16 -27.5204)
(76.9811 -3.75726e-18 -46.8836)
(50.7337 6.2607e-17 -23.3958)
(-13.7183 2.84164e-16 13.5809)
(-39.0514 0 23.7657)
(-27.1707 3.15401e-18 14.1153)
(-19.9013 -1.62232e-16 10.0848)
(-8.47698 0 3.97485)
(-9.27766 1.80844e-16 5.14663)
(-3.93646 7.30142e-17 1.94433)
(-4.5637 -2.19429e-16 2.61004)
(-4.81435 0 1.84092)
(-4.60575 1.72939e-19 1.93492)
(-4.79653 0 2.28781)
(-4.90064 0 2.63064)
(-4.91904 2.97457e-19 2.74448)
(-5.04456 1.94823e-19 2.71952)
(-5.38113 -6.48814e-20 2.70628)
(-5.71684 1.18851e-19 2.75727)
(-5.875 0 2.90247)
(-5.81236 1.18693e-19 3.10681)
(-5.60449 -2.21851e-19 3.26454)
(-5.35581 0 3.35922)
(-5.16167 -4.46169e-19 3.40812)
(-5.05796 0 3.21745)
(-4.65998 6.49539e-19 2.71634)
(-3.85046 -3.50521e-19 2.40047)
(-3.89823 -1.27177e-18 2.30959)
(-4.11993 -6.3928e-19 1.75133)
(-2.0575 -1.18366e-18 1.789)
(-3.28316 0 0.756412)
(-2.86017 5.10008e-18 -0.120539)
(-0.112105 0 3.37803)
(-4.81399 0 -3.25009)
(2.63235 -4.49364e-18 6.09453)
(-5.19531 -1.16986e-17 -4.89206)
(1.3188 0 6.76224)
(-2.75283 0 -2.29648)
(-1.27517 0 2.11641)
(-1.52617 -2.55745e-19 1.06678)
(-1.46292 -1.30219e-18 0.676603)
(-1.20128 2.68541e-19 0.459342)
(-0.95852 -1.81602e-18 0.276577)
(-0.692283 2.4386e-19 0.312849)
(-0.378043 1.30402e-19 -0.257099)
(-0.0819081 1.17893e-18 -0.47383)
(0.203997 2.99991e-19 -0.303396)
(0.448562 0 -0.472992)
(0.615142 -1.29826e-18 -0.739297)
(0.741584 -1.36369e-18 -0.687822)
(0.821695 4.49541e-20 -0.645404)
(0.850626 0 -0.738844)
(0.819227 -5.02369e-19 -0.727515)
(0.754795 -1.63326e-19 -0.603974)
(0.64621 3.79661e-19 -0.529563)
(0.522948 4.14812e-19 -0.465844)
(0.398459 0 -0.335621)
(0.253818 0 -0.197094)
(0.105487 -5.21854e-20 -0.106805)
(0.0406043 0 -0.0320253)
(0.0249137 0 0.0639502)
(-0.0638802 -5.79132e-20 0.14991)
(-0.118888 1.87927e-18 0.193437)
(-0.0179068 1.2607e-18 0.250598)
(-0.0603369 3.2579e-20 0.399545)
(-0.437485 -1.27503e-19 0.585663)
(-0.729026 0 0.759459)
(-0.891445 0 1.05714)
(-1.57492 -2.52865e-17 1.51837)
(-2.56653 0 1.86157)
(-2.7903 0 1.85808)
(-2.51154 1.02939e-17 1.62952)
(-2.6007 0 1.1887)
(-1.51447 0 -0.459446)
(2.59219 4.29988e-17 -3.36804)
(8.18594 6.22203e-17 -6.57442)
(13.561 -8.85889e-17 -10.0642)
(19.9293 0 -13.2821)
(25.358 -3.24069e-17 -15.7706)
(26.0426 0 -14.1524)
(22.0661 0 -10.6021)
(15.347 3.90586e-16 -10.8845)
(13.0888 0 -2.46301)
(3.25244 0 0.107761)
(-2.02483 0 0.0770795)
(4.95667 0 -3.6337)
(17.3671 0 -10.8186)
(22.8076 -5.58675e-16 -16.8044)
(30.2146 3.44607e-18 -21.4192)
(28.6942 -6.2842e-16 -10.4924)
(-15.5838 -1.14607e-15 20.3254)
(-60.3394 0 46.3197)
(-54.9688 0 52.9508)
(-7.55582 0 29.4324)
(-271.847 0 222.431)
(-444.407 0 122.741)
(474.822 -5.62162e-18 -481.051)
(931.717 0 -413.701)
(44.871 1.34056e-15 79.8583)
(53.1844 -5.3322e-18 -40.1405)
(-31.9199 0 44.1942)
(-99.3345 2.44572e-15 44.0609)
(-27.3865 0 8.42291)
(44.2002 1.43352e-15 -45.2453)
(215.34 -6.95177e-17 -160.188)
(352.927 0 -219.566)
(278.373 0 -147.084)
(123.368 0 -34.742)
(-43.4203 0 56.9694)
(-149.996 -9.71591e-16 105.838)
(-154.531 0 98.605)
(-189.035 0 112.992)
(-188.746 -6.66064e-16 101.871)
(-150.273 0 75.4513)
(-81.4429 -1.77931e-16 36.2574)
(-61.6762 1.06024e-16 31.0026)
(-42.9555 0 22.4046)
(-38.8167 1.15973e-15 22.0319)
(-35.1556 -6.04325e-18 17.5639)
(2.99969 -1.54425e-16 -7.63817)
(46.3793 2.32643e-16 -34.123)
(83.681 -2.64226e-16 -50.9334)
(49.8819 -5.84519e-17 -20.759)
(-15.8922 -1.34029e-16 18.0844)
(-41.4952 1.39734e-16 25.4996)
(-29.5803 -2.9444e-18 15.0243)
(-21.4849 1.51441e-16 10.5604)
(-9.02142 6.94074e-17 4.01484)
(-10.1114 -1.66233e-16 5.54473)
(-3.67289 0 1.67864)
(-4.88413 0 2.80821)
(-4.70408 0 2.06443)
(-4.39864 1.81557e-19 2.11034)
(-4.49302 0 2.36389)
(-4.54867 0 2.6499)
(-4.49921 0 2.79629)
(-4.4979 0 2.81747)
(-4.73784 1.29547e-19 2.80319)
(-5.12386 -2.58643e-20 2.82703)
(-5.5008 1.04289e-20 2.96467)
(-5.75318 -2.31157e-19 3.20779)
(-5.8414 2.08558e-19 3.4357)
(-5.81203 0 3.60466)
(-5.85675 4.19422e-19 3.75157)
(-6.0743 0 3.69552)
(-5.86036 -6.10647e-19 3.31902)
(-5.08669 2.36475e-20 3.00444)
(-5.31706 0 2.76175)
(-5.35083 0 2.36824)
(-3.42715 3.3854e-19 2.62696)
(-5.15427 0 0.9543)
(-3.04346 0 1.41733)
(-3.01697 8.38986e-18 2.26441)
(-4.33276 0 -0.808838)
(0.083787 0 4.82013)
(-5.06211 4.00699e-19 -2.55428)
(-0.0254282 0 5.03044)
(-3.26458 0 0.0527551)
(-1.85633 0 1.3737)
(-2.00915 -8.80397e-19 1.53724)
(-1.97547 0 0.865119)
(-1.56961 1.14214e-19 0.627013)
(-1.32085 3.07046e-19 0.224362)
(-0.988624 -4.13016e-19 0.331228)
(-0.575218 -1.22528e-19 -0.0310857)
(-0.2642 -1.8215e-18 -0.502285)
(0.0529607 -8.14497e-19 -0.396451)
(0.331598 0 -0.449056)
(0.538935 0 -0.71783)
(0.689882 -1.1396e-18 -0.741544)
(0.785793 4.72932e-19 -0.672199)
(0.833425 0 -0.732395)
(0.816719 0 -0.746723)
(0.75991 -5.29823e-20 -0.629561)
(0.654644 -3.56558e-19 -0.53365)
(0.534177 -3.89542e-19 -0.468418)
(0.411083 -4.66216e-19 -0.346034)
(0.263615 0 -0.203656)
(0.111702 -5.83307e-20 -0.108575)
(0.0476726 0 -0.0365078)
(0.0335903 0 0.0550714)
(-0.0564325 5.43531e-20 0.143256)
(-0.10937 -1.76367e-18 0.197317)
(-0.00021312 0 0.266513)
(-0.0391866 -2.01104e-18 0.428723)
(-0.418559 -1.41724e-19 0.647288)
(-0.710058 0 0.857052)
(-0.871724 0 1.16604)
(-1.56504 2.41385e-17 1.62701)
(-2.57714 0 1.96775)
(-2.80668 0 1.92978)
(-2.50839 -1.90166e-17 1.61355)
(-2.61346 0 1.04202)
(-1.55016 0 -0.749731)
(2.61609 -8.29639e-17 -3.89638)
(8.38144 -5.83148e-17 -7.41779)
(14.04 4.31569e-17 -11.1783)
(20.6738 0 -14.9484)
(26.8936 3.03626e-17 -17.0003)
(27.8484 0 -14.9805)
(23.3218 4.41014e-17 -11.1599)
(16.5932 -1.95265e-16 -10.4158)
(13.5611 0 -2.386)
(3.38949 0 0.511028)
(-1.71405 2.29921e-16 -0.268128)
(6.25554 5.52383e-16 -5.08937)
(20.3917 0 -13.524)
(26.7559 0 -20.1391)
(33.4252 -1.23951e-15 -23.2265)
(27.2562 5.88069e-16 -6.74403)
(-27.0393 2.15231e-15 30.6068)
(-70.6414 0 52.468)
(-22.3159 0 32.257)
(71.7838 0 -7.15265)
(-297.791 0 249.575)
(-186.835 0 -45.1299)
(163.783 -9.3685e-18 -353.755)
(950.971 0 -412.463)
(101.44 0 77.3651)
(61.8814 -3.10442e-17 -40.6701)
(-31.4705 0 50.3206)
(-103.359 1.95978e-15 44.1701)
(-23.8551 0 2.44139)
(68.0493 -1.33971e-15 -66.3834)
(253.043 -7.13963e-17 -191.784)
(380.03 0 -236.639)
(267.201 0 -132.953)
(98.378 0 -11.3909)
(-68.2113 0 78.6586)
(-161.649 2.07227e-17 115.35)
(-154.456 4.63334e-16 99.694)
(-194.086 -4.18693e-16 116.914)
(-194.101 6.22102e-16 103.66)
(-161.703 0 78.973)
(-84.8463 1.66168e-16 34.6984)
(-66.2113 -9.9009e-17 33.412)
(-48.0774 0 24.6759)
(-44.3819 -5.35183e-16 24.9773)
(-37.5373 -2.73786e-16 17.7359)
(6.46902 6.99126e-17 -11.8345)
(54.145 0 -40.5984)
(88.6133 2.35679e-16 -53.7402)
(48.1771 0 -17.2092)
(-16.952 0 22.61)
(-43.2306 -1.30439e-16 26.8333)
(-31.702 0 15.712)
(-22.8137 0 10.8093)
(-9.3814 -6.4784e-17 3.91032)
(-10.7952 1.55156e-16 5.83416)