/*--------------------------------*- C++ -*----------------------------------*\
| =========                 |                                                 |
| \\      /  F ield         | OpenFOAM: The Open Source CFD Toolbox           |
|  \\    /   O peration     | Version:  2412                                  |
|   \\  /    A nd           | Website:  www.openfoam.com                      |
|    \\/     M anipulation  |                                                 |
\*---------------------------------------------------------------------------*/
FoamFile
{
    version     2.0;
    format      ascii;
    arch        "LSB;label=32;scalar=64";
    class       volVectorField;
    location    "1.28";
    object      U;
}
// * * * * * * * * * * * * * * * * * * * * * * * * * * * * * * * * * * * * * //

dimensions      [0 1 -1 0 0 0 0];

internalField   nonuniform List<vector> 
12600
(
(18.7406 1.23799e-21 2.09522)
(11.6203 1.60884e-20 0.451237)
(7.35173 1.89151e-20 -0.477814)
(5.08994 0 -0.709265)
(3.97686 1.70931e-20 -0.682366)
(3.33604 1.59159e-20 -0.607648)
(2.89469 0 -0.539948)
(2.56336 0 -0.484474)
(2.30364 -4.78189e-20 -0.438991)
(2.09341 0 -0.401227)
(1.91894 2.00494e-20 -0.369336)
(1.77132 1.83546e-20 -0.341988)
(1.64442 -1.68111e-20 -0.318235)
(1.53392 0 -0.297379)
(1.43662 -1.40835e-20 -0.278896)
(1.35013 0 -0.262383)
(1.27264 4.72991e-20 -0.247525)
(1.20271 0 -0.234071)
(1.13921 -1.97841e-20 -0.221821)
(1.08123 -1.80879e-20 -0.210609)
(1.02803 1.65057e-20 -0.200302)
(0.978991 5.40071e-24 -0.190788)
(0.933617 0 -0.181973)
(0.891479 -2.48676e-20 -0.173778)
(0.852217 0 -0.166135)
(0.815523 0 -0.158987)
(0.781135 -1.84034e-20 -0.152284)
(0.748824 0 -0.145983)
(0.718393 4.0905e-24 -0.140046)
(0.689668 1.32655e-20 -0.134441)
(0.662499 1.17976e-20 -0.129138)
(0.63675 1.0438e-20 -0.124111)
(0.612303 -9.17932e-21 -0.119338)
(0.589052 -1.60287e-20 -0.114798)
(0.566902 -1.38734e-20 -0.110473)
(0.54577 1.18699e-20 -0.106347)
(0.525576 0 -0.102405)
(0.506254 -8.33921e-21 -0.0986326)
(0.487738 0 -0.0950184)
(0.469976 5.32469e-21 -0.0915516)
(0.452909 0 -0.0882212)
(0.436497 1.75437e-23 -0.0850191)
(0.420689 0 -0.0819353)
(0.405452 1.5968e-23 -0.0789638)
(0.39074 -6.85894e-22 -0.0760951)
(0.37653 2.40107e-21 -0.0733252)
(0.362776 -3.99401e-21 -0.0706446)
(0.349467 0 -0.0680515)
(0.336552 0 -0.0655357)
(0.324032 -7.92396e-21 -0.0630979)
(0.311853 -1.79882e-20 -0.0607267)
(0.300028 -1.99174e-20 -0.0584255)
(0.288493 1.94601e-23 -0.0561809)
(0.27728 -2.3174e-20 -0.054)
(0.266308 0 -0.0518663)
(0.255632 2.57771e-20 -0.0497911)
(0.245151 2.68377e-20 -0.0477541)
(0.234948 2.77481e-20 -0.045772)
(0.224893 0 -0.043819)
(0.215106 0 -0.0419187)
(0.20542 0 -0.0400384)
(0.195996 -6.04872e-20 -0.0382099)
(0.186627 0 -0.0363921)
(0.177524 0 -0.0346268)
(0.168426 1.24178e-19 -0.0328625)
(0.159605 0 -0.0311526)
(0.15074 0 -0.0294343)
(0.142167 0 -0.0277733)
(0.133504 -1.2419e-19 -0.0260949)
(0.125153 1.23593e-19 -0.0244774)
(0.11667 1.22737e-19 -0.0228347)
(0.108522 2.34847e-23 -0.0212569)
(0.100208 -1.20485e-19 -0.0196473)
(0.0922575 0 -0.018108)
(0.0841055 1.1755e-19 -0.0165301)
(0.0763778 0 -0.015034)
(0.0683679 0 -0.0134836)
(0.06095 0 -0.0120473)
(0.0530054 2.86421e-23 -0.0105096)
(0.0461053 2.15813e-19 -0.00917283)
(0.0380298 2.11143e-19 -0.00760979)
(0.0320395 -2.06593e-19 -0.00644794)
(0.0234662 -2.01507e-19 -0.00478897)
(0.0189809 0 -0.00391615)
(0.00942506 0 -0.00206861)
(0.00704518 3.73059e-19 -0.00159841)
(-0.00373723 -7.22774e-19 0.000485845)
(-0.00401141 7.03392e-19 0.000545719)
(-0.0152321 3.39633e-19 0.00271504)
(-0.015074 0 0.00268439)
(-0.0235224 -6.35654e-19 0.00433152)
(-0.0283089 3.07013e-19 0.00523166)
(-0.0256891 -2.96722e-19 0.00477467)
(-0.0442878 5.66893e-19 0.00834677)
(-0.0256081 0 0.0047712)
(-0.055797 0 0.0105819)
(-0.032652 0 0.00604359)
(-0.053572 0 0.0102062)
(-0.0445836 0 0.0083915)
(-0.0541832 0 0.0103272)
(-0.0576163 -4.24825e-19 0.0109066)
(-0.0509131 -8.05496e-19 0.00970454)
(-0.0677885 -7.69478e-19 0.0129248)
(-0.0592907 0 0.0112995)
(-0.0775047 0 0.0147625)
(-0.0452068 0 0.00877072)
(-0.118339 -6.16937e-19 0.0225967)
(-0.0543611 -1.23198e-18 0.0101478)
(-0.094574 5.59168e-19 0.0183443)
(-0.102657 0 0.0194693)
(-0.0857601 -1.03157e-18 0.0164517)
(-0.136249 0 0.0259823)
(-0.0963372 -9.53338e-19 0.0181926)
(-0.101257 8.93607e-19 0.0195632)
(-0.177181 -8.44647e-19 0.0337308)
(-0.0683594 -8.48984e-19 0.0126974)
(-0.115903 7.67308e-19 0.022368)
(-0.147732 -6.14847e-23 0.0280832)
(-0.110994 7.16005e-19 0.0208764)
(-0.050244 0 0.00925791)
(29.1505 -1.24975e-21 4.02697)
(25.1065 0 1.85885)
(20.2441 -1.91442e-20 -0.213495)
(16.0775 0 -1.21221)
(13.118 -1.73202e-20 -1.50777)
(11.0752 -3.04059e-20 -1.51875)
(9.6029 -1.40725e-20 -1.44111)
(8.49083 0 -1.34348)
(7.61791 3.5589e-22 -1.24809)
(6.91132 -2.18705e-20 -1.16101)
(6.32542 2.00774e-20 -1.08292)
(5.83017 1.84288e-20 -1.0131)
(5.40498 -1.69132e-20 -0.950537)
(5.03515 1.55188e-20 -0.894255)
(4.70996 2.8526e-20 -0.843395)
(4.42131 0 -0.797221)
(4.16302 -6.45767e-23 -0.755114)
(3.93025 2.19002e-20 -0.716554)
(3.71917 2.00719e-20 -0.6811)
(3.52669 0 -0.648382)
(3.35031 0 -0.618085)
(3.18795 1.52509e-20 -0.589938)
(3.03791 0 -0.563713)
(2.89873 1.26061e-20 -0.539209)
(2.76922 -2.28502e-20 -0.516256)
(2.64832 0 -0.494703)
(2.53515 1.8653e-20 -0.47442)
(2.42894 0 -0.455292)
(2.32902 -1.50422e-20 -0.437218)
(2.23481 -2.68746e-20 -0.420107)
(2.1458 -2.38965e-20 -0.40388)
(2.06153 -1.05652e-20 -0.388466)
(1.98161 9.28857e-21 -0.3738)
(1.90567 3.24474e-20 -0.359827)
(1.83341 2.80784e-20 -0.346493)
(1.76454 0 -0.333753)
(1.69879 0 -0.321562)
(1.63594 -1.73268e-23 -0.309885)
(1.57578 0 -0.298684)
(1.51812 -5.3755e-21 -0.287928)
(1.46277 0 -0.277586)
(1.4096 -5.58498e-21 -0.267635)
(1.35843 0 -0.258043)
(1.30915 -1.23055e-21 -0.248794)
(1.26163 0 -0.239859)
(1.21576 -2.41773e-21 -0.231227)
(1.17141 0 -0.222869)
(1.12853 0 -0.214781)
(1.08696 6.74221e-21 -0.20693)
(1.0467 0 -0.19932)
(1.00757 0 -0.191915)
(0.969611 0 -0.184728)
(0.932619 2.16952e-20 -0.177714)
(0.896685 4.64353e-20 -0.1709)
(0.861561 0 -0.16423)
(0.827408 0 -0.157744)
(0.793915 -2.68133e-20 -0.151375)
(0.761327 -2.77468e-20 -0.145179)
(0.729251 0 -0.139071)
(0.698038 0 -0.133131)
(0.667188 0 -0.127248)
(0.637183 0 -0.121533)
(0.607387 -6.09138e-20 -0.115846)
(0.578441 6.14086e-20 -0.110328)
(0.549549 -1.23471e-19 -0.104807)
(0.521533 0 -0.0994642)
(0.493415 0 -0.0940864)
(0.466217 0 -0.0888969)
(0.438769 4.73595e-23 -0.083643)
(0.412299 -1.22411e-19 -0.0785904)
(0.385445 -1.21452e-19 -0.0734466)
(0.359633 2.40644e-19 -0.0685186)
(0.333329 3.58878e-23 -0.0634773)
(0.30815 -1.17509e-19 -0.0586694)
(0.28237 -1.15877e-19 -0.0537262)
(0.257886 0 -0.0490511)
(0.232564 0 -0.0441945)
(0.209026 0 -0.0397007)
(0.183932 2.1601e-19 -0.034887)
(0.161958 0 -0.0306938)
(0.136497 0 -0.0258083)
(0.11727 2.02197e-19 -0.0221454)
(0.0903238 1.97008e-19 -0.0169711)
(0.075667 0 -0.0141924)
(0.0457282 0 -0.00843674)
(0.0375371 0 -0.00690479)
(0.0037628 7.03502e-19 -0.0004125)
(0.00219962 -4.2783e-23 -0.00016868)
(-0.0331895 3.29828e-19 0.00669295)
(-0.0329311 -3.19831e-19 0.00649115)
(-0.0605494 6.16021e-19 0.0119626)
(-0.074194 2.97172e-19 0.0143382)
(-0.0695814 5.73883e-19 0.0136455)
(-0.124064 0 0.0239934)
(-0.070744 0 0.0136634)
(-0.161638 0 0.0314233)
(-0.0909217 0 0.0171267)
(-0.158407 4.60776e-19 0.0308828)
(-0.128435 0 0.0244806)
(-0.160796 0 0.0313024)
(-0.168357 -4.07327e-19 0.0321563)
(-0.151961 3.85814e-19 0.0294564)
(-0.202261 1.47277e-18 0.0390027)
(-0.176517 -6.99883e-19 0.0341011)
(-0.230095 0 0.0440385)
(-0.141552 0 0.0278279)
(-0.352015 0 0.0681308)
(-0.160097 5.86745e-19 0.0298605)
(-0.291946 -5.32162e-19 0.057325)
(-0.301168 0 0.0575142)
(-0.261779 1.96017e-18 0.0508889)
(-0.402861 9.28471e-19 0.0777613)
(-0.284226 1.80854e-18 0.0537941)
(-0.311155 0 0.0611285)
(-0.514482 0 0.0987239)
(-0.197681 -8.03419e-19 0.0365152)
(-0.354349 0 0.0696487)
(-0.426623 -7.12414e-19 0.0817955)
(-0.318 -6.76159e-19 0.0596585)
(-0.135174 0 0.0248175)
(31.8939 0 3.89816)
(31.0792 0 2.81973)
(28.5491 -1.29669e-20 1.02396)
(25.206 0 -0.382968)
(21.9544 0 -1.2269)
(19.1819 1.51153e-20 -1.65159)
(16.9241 1.33268e-20 -1.8198)
(15.0996 0 -1.85134)
(13.6124 4.2068e-22 -1.81758)
(12.3825 2.07193e-20 -1.75504)
(11.3494 -3.78331e-20 -1.68123)
(10.4688 -1.74612e-20 -1.6045)
(9.70856 1.14547e-22 -1.52882)
(9.04477 -1.47052e-20 -1.45606)
(8.45953 -1.34889e-20 -1.387)
(7.93913 1.23179e-20 -1.32189)
(7.47289 -2.26652e-20 -1.26073)
(7.0524 -2.07536e-20 -1.20335)
(6.67092 0 -1.14954)
(6.323 0 -1.09905)
(6.00418 1.58143e-20 -1.05163)
(5.71076 1.44202e-20 -1.00704)
(5.43966 0 -0.965061)
(5.1883 0 -0.925483)
(4.95447 2.1652e-20 -0.888114)
(4.73632 0 -0.85278)
(4.53221 -3.53428e-20 -0.819321)
(4.34077 1.58984e-20 -0.787594)
(4.16077 0 -0.757466)
(3.99116 1.27336e-20 -0.72882)
(3.83101 1.13228e-20 -0.701547)
(3.67949 0 -0.675547)
(3.53589 -8.81219e-21 -0.650731)
(3.39954 -1.53757e-20 -0.627018)
(3.26987 1.2112e-23 -0.60433)
(3.14637 0 -0.582602)
(3.02856 0 -0.561766)
(2.91602 7.99466e-21 -0.541768)
(2.80836 0 -0.522551)
(2.70526 0 -0.50407)
(2.60636 0 -0.486273)
(2.51141 0 -0.469125)
(2.42011 0 -0.452577)
(2.33225 0 -0.436604)
(2.24756 0 -0.421158)
(2.1659 2.24523e-21 -0.406223)
(2.08699 -3.75012e-21 -0.39175)
(2.01074 0 -0.377734)
(1.93689 -6.37877e-21 -0.36412)
(1.8654 0 -0.350919)
(1.79598 0 -0.338064)
(1.72868 1.88273e-20 -0.325585)
(1.66314 0 -0.3134)
(1.59952 -2.19391e-20 -0.30156)
(1.53738 2.3201e-20 -0.289964)
(1.47699 0 -0.27869)
(1.41782 2.53445e-20 -0.267612)
(1.36027 0 -0.256838)
(1.30368 0 -0.246211)
(1.24863 0 -0.23588)
(1.19427 5.60608e-20 -0.225644)
(1.14142 5.68791e-20 -0.215703)
(1.08898 2.84539e-23 -0.205804)
(1.03805 -1.15947e-19 -0.196208)
(0.987265 2.4958e-23 -0.186598)
(0.938019 0 -0.177305)
(0.888644 0 -0.167944)
(0.840878 -1.16572e-19 -0.158919)
(0.792722 3.81681e-23 -0.149772)
(0.746266 0 -0.140985)
(0.699184 0 -0.132029)
(0.653908 -1.13448e-19 -0.123459)
(0.607812 2.89015e-23 -0.114679)
(0.563655 2.6883e-23 -0.106316)
(0.518488 0 -0.0977052)
(0.47554 0 -0.0895686)
(0.431186 -2.11291e-19 -0.0811095)
(0.389852 2.07501e-19 -0.0732752)
(0.345921 0 -0.0648988)
(0.307222 0 -0.0575617)
(0.262712 0 -0.04908)
(0.228645 0 -0.0426242)
(0.181653 0 -0.033671)
(0.155324 0 -0.0287014)
(0.103252 0 -0.018765)
(0.0879644 0 -0.0159302)
(0.0292523 -6.61391e-19 -0.00470296)
(0.0255092 -3.21432e-19 -0.00412663)
(-0.0363448 -3.09996e-19 0.00787382)
(-0.0362796 3.00538e-19 0.00740973)
(-0.0858915 -5.78692e-19 0.0174803)
(-0.107789 -2.79132e-19 0.0207946)
(-0.104814 -2.69458e-19 0.0210619)
(-0.19413 0 0.0374325)
(-0.109037 0 0.0212548)
(-0.26136 0 0.0510318)
(-0.141833 0 0.0263087)
(-0.261193 -4.32284e-19 0.0514066)
(-0.206666 0 0.0390865)
(-0.266286 0 0.0522727)
(-0.274817 3.81921e-19 0.05207)
(-0.253135 0 0.0493618)
(-0.336123 -6.90184e-19 0.0648443)
(-0.293353 6.5587e-19 0.0567578)
(-0.381842 0 0.0725182)
(-0.244469 0 0.0491311)
(-0.584046 0 0.113054)
(-0.264913 5.49411e-19 0.0483606)
(-0.4989 0 0.0993573)
(-0.494237 -4.87265e-19 0.0934606)
(-0.444393 -7.33238e-24 0.087212)
(-0.665131 -8.68951e-19 0.128141)
(-0.470115 -1.69223e-18 0.0876387)
(-0.529067 0 0.105787)
(-0.837253 7.48076e-19 0.158775)
(-0.322176 7.51501e-19 0.0574995)
(-0.600272 6.78741e-19 0.119957)
(-0.688071 0 0.130551)
(-0.511814 6.32233e-19 0.0927607)
(-0.203295 0 0.0349624)
(32.4156 0 2.95644)
(32.9812 0 2.76972)
(32.4274 1.2258e-20 1.72454)
(30.7837 0 0.522495)
(28.5298 -1.22996e-20 -0.483351)
(26.1127 2.5018e-20 -1.20679)
(23.7925 0 -1.67016)
(21.6853 -2.18338e-20 -1.93449)
(19.8248 2.0933e-20 -2.06377)
(18.2013 1.8928e-20 -2.10808)
(16.7874 1.77879e-20 -2.10128)
(15.5519 -1.61657e-20 -2.06465)
(14.4662 1.50478e-20 -2.01114)
(13.5062 -2.74299e-20 -1.9486)
(12.6516 0 -1.88174)
(11.8862 -2.32368e-20 -1.81345)
(11.1967 0 -1.74547)
(10.5722 0 -1.67884)
(10.0037 0 -1.61419)
(9.48392 1.63364e-20 -1.55185)
(9.00665 -3.41912e-23 -1.49198)
(8.56672 -2.60074e-23 -1.43464)
(8.15978 1.23974e-20 -1.37982)
(7.78212 0 -1.32744)
(7.43059 0 -1.27742)
(7.10245 0 -1.22966)
(6.79536 3.34116e-20 -1.18404)
(6.50727 -5.98836e-24 -1.14046)
(6.23639 0 -1.09881)
(5.98116 0 -1.05897)
(5.74019 0 -1.02085)
(5.51226 0 -0.984336)
(5.29629 1.66686e-20 -0.949341)
(5.09129 0 -0.915777)
(4.89641 -1.25916e-20 -0.883558)
(4.71086 0 -0.852607)
(4.53393 0 -0.822848)
(4.365 -7.58101e-21 -0.794217)
(4.20348 0 -0.766642)
(4.04885 0 -0.74007)
(3.90063 3.64264e-21 -0.714435)
(3.75839 -5.068e-21 -0.689695)
(3.62169 0 -0.665785)
(3.49022 -1.16648e-21 -0.642675)
(3.36358 0 -0.6203)
(3.24152 -4.22279e-21 -0.598643)
(3.12365 1.88533e-23 -0.577633)
(3.00983 0 -0.557271)
(2.89966 0 -0.537477)
(2.79308 7.05482e-21 -0.518269)
(2.68964 1.60255e-20 -0.499554)
(2.58942 -3.55263e-20 -0.481375)
(2.4919 0 -0.463616)
(2.39728 -2.06621e-20 -0.446353)
(2.30493 -2.19009e-20 -0.42944)
(2.21523 -2.29462e-20 -0.412991)
(2.12741 -2.38771e-20 -0.396822)
(2.04203 0 -0.381096)
(1.95815 0 -0.365578)
(1.87658 -5.19e-20 -0.350492)
(1.7961 -1.05729e-19 -0.335542)
(1.71787 -5.36467e-20 -0.321022)
(1.64033 3.05257e-23 -0.306562)
(1.56503 5.46519e-20 -0.292543)
(1.49001 5.49146e-20 -0.278504)
(1.41727 0 -0.264926)
(1.34441 0 -0.251248)
(1.27392 1.09855e-19 -0.238062)
(1.20291 2.18702e-19 -0.224695)
(1.1344 0 -0.211856)
(1.06503 1.07799e-19 -0.198765)
(0.998292 1.06783e-19 -0.186242)
(0.930396 1.05595e-19 -0.173405)
(0.865326 2.08506e-19 -0.161182)
(0.798813 0 -0.14859)
(0.735509 0 -0.136689)
(0.670203 1.98829e-19 -0.124321)
(0.609214 -3.90416e-19 -0.112842)
(0.544558 -1.91253e-19 -0.100606)
(0.487307 0 -0.0898161)
(0.421878 0 -0.0774567)
(0.371187 0 -0.067891)
(0.30227 0 -0.0548931)
(0.262582 0 -0.0474166)
(0.186422 0 -0.0330325)
(0.162565 -3.21068e-19 -0.0286178)
(0.0767594 4.20605e-23 -0.0123238)
(0.0697668 3.01814e-19 -0.0112585)
(-0.0210965 0 0.00630944)
(-0.0216132 2.82099e-19 0.00555142)
(-0.0964067 2.71591e-19 0.0209301)
(-0.125867 0 0.0246911)
(-0.128773 -2.52811e-19 0.0270987)
(-0.251412 -4.82201e-19 0.048768)
(-0.138382 0 0.0277169)
(-0.352134 0 0.0693569)
(-0.183537 0 0.0339061)
(-0.359928 -4.05237e-19 0.0717263)
(-0.277026 0 0.0523368)
(-0.369157 0 0.0732765)
(-0.374794 3.57826e-19 0.0708335)
(-0.353394 -3.38825e-19 0.0695623)
(-0.467096 0 0.0904426)
(-0.408572 0 0.079427)
(-0.531282 0 0.100616)
(-0.352879 0 0.0723786)
(-0.811392 0 0.157371)
(-0.368863 -2.80468e-23 0.0664236)
(-0.713175 0 0.143951)
(-0.679442 4.55967e-19 0.127832)
(-0.632568 -8.58341e-19 0.1254)
(-0.919409 0 0.177333)
(-0.653212 6.09603e-23 0.120688)
(-0.75164 0 0.152782)
(-1.14151 -1.29838e-22 0.214942)
(-0.441667 0 0.0769023)
(-0.84996 -6.34599e-19 0.17246)
(-0.925216 0 0.174551)
(-0.689915 5.90857e-19 0.121397)
(-0.25055 0 0.0401651)
(32.5179 0 2.1043)
(33.2754 0 2.22937)
(33.6219 0 1.75371)
(33.2572 0 0.959026)
(32.234 1.161e-20 0.116578)
(30.7594 -9.01345e-22 -0.633125)
(29.0392 0 -1.23465)
(27.2321 2.06081e-20 -1.67882)
(25.4478 0 -1.98281)
(23.7526 -3.52308e-20 -2.17488)
(22.1787 0 -2.28366)
(20.7363 1.52616e-20 -2.33313)
(19.4229 0 -2.34163)
(18.2298 2.58982e-20 -2.32242)
(17.1457 -1.17955e-20 -2.28479)
(16.1592 2.17944e-20 -2.23521)
(15.2592 -1.99505e-20 -2.17813)
(14.4359 -1.83115e-20 -2.11659)
(13.6805 0 -2.05272)
(12.9852 -1.54261e-20 -1.98797)
(12.3434 -1.40923e-20 -1.92333)
(11.7493 -2.56736e-20 -1.85948)
(11.1978 -1.17065e-20 -1.79689)
(10.6844 0 -1.73584)
(10.2054 0 -1.67652)
(9.75744 0 -1.61905)
(9.33749 -1.57691e-20 -1.56346)
(8.943 -1.41909e-20 -1.50978)
(8.57168 0 -1.45798)
(8.22151 0 -1.40804)
(7.89068 1.01111e-20 -1.35989)
(7.57759 0 -1.31348)
(7.2808 1.37554e-24 -1.26874)
(6.99904 -1.37476e-20 -1.22562)
(6.73112 1.19024e-20 -1.18404)
(6.47602 0 -1.14393)
(6.23277 0 -1.10523)
(6.00054 7.15511e-21 -1.06787)
(5.77852 0 -1.03178)
(5.56603 0 -0.996919)
(5.36237 -3.43742e-21 -0.963201)
(5.167 4.78219e-21 -0.930589)
(4.9793 0 -0.89901)
(4.79885 1.10055e-21 -0.868434)
(4.62508 0 -0.838782)
(4.45767 1.9825e-21 -0.810041)
(4.29609 3.32399e-21 -0.782122)
(4.14013 0 -0.755033)
(3.98924 5.63497e-21 -0.728669)
(3.84334 -6.65309e-21 -0.703064)
(3.70183 -3.01936e-20 -0.678093)
(3.56478 1.67349e-20 -0.65382)
(3.4315 -1.81588e-20 -0.630091)
(3.30224 2.53919e-23 -0.607011)
(3.17618 0 -0.584386)
(3.05379 2.16277e-20 -0.562373)
(2.93404 2.25029e-20 -0.540724)
(2.81768 -2.32411e-20 -0.519662)
(2.70343 2.38859e-20 -0.498872)
(2.59238 4.88973e-20 -0.478656)
(2.4829 4.9784e-20 -0.458615)
(2.37652 -5.04691e-20 -0.439149)
(2.27115 5.10416e-20 -0.419758)
(2.16885 0 -0.400957)
(2.06701 0 -0.382124)
(1.96828 5.17802e-20 -0.363913)
(1.86946 0 -0.345559)
(1.77387 0 -0.327868)
(1.67764 -1.02891e-19 -0.309927)
(1.5848 0 -0.292702)
(1.49084 -1.01422e-19 -0.275125)
(1.40044 -2.00872e-19 -0.258319)
(1.30853 0 -0.241078)
(1.22041 -9.80307e-20 -0.224669)
(1.13037 0 -0.207751)
(1.04463 0 -0.191762)
(0.956234 -1.86815e-19 -0.175144)
(0.873539 1.83453e-19 -0.159696)
(0.78605 3.94212e-23 -0.14327)
(0.708227 0 -0.128694)
(0.619786 0 -0.112141)
(0.550495 0 -0.0991218)
(0.457546 -1.63561e-19 -0.0817791)
(0.402615 1.59487e-19 -0.0714495)
(0.300179 0 -0.0523176)
(0.266077 6.02736e-19 -0.0460116)
(0.150782 2.91498e-19 -0.0242973)
(0.139282 -5.66415e-19 -0.0225637)
(0.0166018 -2.73027e-19 0.00109983)
(0.0149862 -5.29248e-19 -1.27241e-05)
(-0.0885417 0 0.0215306)
(-0.124831 0 0.0251158)
(-0.138471 2.37051e-19 0.0311274)
(-0.292509 4.52071e-19 0.0570385)
(-0.156365 -4.39992e-19 0.0325017)
(-0.430757 0 0.0856029)
(-0.214068 0 0.0393249)
(-0.452164 3.79682e-19 0.0913542)
(-0.337094 3.69132e-19 0.0634813)
(-0.467644 0 0.0939535)
(-0.465878 -3.35113e-19 0.0876339)
(-0.451474 3.17272e-19 0.0898101)
(-0.592516 0 0.115083)
(-0.520903 0 0.101718)
(-0.6767 0 0.127688)
(-0.465184 0 0.0973972)
(-1.03091 0 0.200063)
(-0.472087 -4.8114e-19 0.0838681)
(-0.931716 0 0.190553)
(-0.854663 0 0.159493)
(-0.824772 0 0.165229)
(-1.16197 7.60014e-19 0.223929)
(-0.832827 7.40006e-19 0.152303)
(-0.974613 0 0.201323)
(-1.42402 -6.53915e-19 0.264981)
(-0.555909 0 0.0942278)
(-1.09874 -5.93163e-19 0.226262)
(-1.13138 0 0.210954)
(-0.850355 -5.52178e-19 0.143904)
(-0.272587 0 0.0385635)
(32.5898 -4.97244e-21 1.49048)
(33.1729 -6.17492e-21 1.62973)
(33.6993 7.33456e-21 1.43834)
(33.9246 8.26705e-21 0.976937)
(33.7318 0 0.384557)
(33.1328 -9.91207e-21 -0.231791)
(32.2008 0 -0.806283)
(31.027 1.74132e-20 -1.30189)
(29.6999 1.66493e-20 -1.70318)
(28.296 3.21131e-20 -2.01058)
(26.8748 -1.47747e-20 -2.23382)
(25.4783 1.37867e-20 -2.38639)
(24.1339 0 -2.48222)
(22.857 0 -2.53394)
(21.655 1.11206e-20 -2.5522)
(20.5297 -1.14545e-22 -2.54553)
(19.4794 1.76037e-22 -2.52057)
(18.5007 1.35874e-22 -2.48242)
(17.5889 0 -2.4349)
(16.7393 0 -2.38091)
(15.9469 0 -2.32259)
(15.207 2.41235e-20 -2.26156)
(14.5152 1.09733e-20 -2.19901)
(13.8674 0 -2.13584)
(13.2598 0 -2.0727)
(12.6891 1.64151e-20 -2.01008)
(12.1521 0 -1.94834)
(11.6461 0 -1.88772)
(11.1685 0 -1.82839)
(10.7172 0 -1.77049)
(10.2899 -6.39205e-24 -1.71408)
(9.88489 0 -1.65921)
(9.50045 -1.60804e-24 -1.60589)
(9.13504 1.29592e-20 -1.55412)
(8.78726 2.62448e-24 -1.50388)
(8.45586 0 -1.45516)
(8.13967 0 -1.40789)
(7.83764 0 -1.36207)
(7.54878 0 -1.31762)
(7.27223 0 -1.27453)
(7.00714 0 -1.23271)
(6.7528 0 -1.19215)
(6.50845 -2.73299e-21 -1.15277)
(6.27353 -1.07325e-21 -1.11454)
(6.04735 0 -1.07739)
(5.82948 1.83315e-21 -1.04131)
(5.61923 0 -1.0062)
(5.41634 0 -0.972078)
(5.22011 -1.05996e-20 -0.938821)
(5.03042 0 -0.90648)
(4.84651 1.42035e-20 -0.874901)
(4.66846 0 -0.844175)
(4.49538 3.4171e-20 -0.814106)
(4.3276 2.46105e-23 -0.784837)
(4.16404 0 -0.75612)
(4.0053 0 -0.728164)
(3.85008 0 -0.700651)
(3.69932 4.37291e-20 -0.673872)
(3.55137 -4.49398e-20 -0.647422)
(3.40764 -4.59443e-20 -0.621696)
(3.266 -4.67781e-20 -0.596179)
(3.12843 9.49344e-20 -0.571391)
(2.99225 4.79591e-20 -0.546685)
(2.86009 0 -0.522732)
(2.7286 0 -0.498725)
(2.60116 -2.43458e-23 -0.475511)
(2.47368 0 -0.452105)
(2.35038 0 -0.429548)
(2.22633 -9.66503e-20 -0.406658)
(2.10665 0 -0.384687)
(1.9856 0 -0.362252)
(1.86913 1.88708e-19 -0.34081)
(1.75074 -9.32386e-20 -0.318791)
(1.63722 0 -0.297848)
(1.52127 0 -0.276231)
(1.41079 0 -0.255806)
(1.29694 1.75448e-19 -0.234568)
(1.19029 0 -0.2148)
(1.07762 3.37382e-19 -0.193821)
(0.977007 -1.6516e-19 -0.175099)
(0.86321 0 -0.154002)
(0.773142 0 -0.137156)
(0.653792 1.53483e-19 -0.115137)
(0.58153 -2.56453e-23 -0.101572)
(0.450361 1.45193e-19 -0.0773635)
(0.404129 -2.8266e-19 -0.0688132)
(0.256669 2.73306e-19 -0.0412959)
(0.239202 2.65554e-19 -0.0386631)
(0.0815795 2.55988e-19 -0.00836198)
(0.0782168 3.0977e-23 -0.00984609)
(-0.0580336 0 0.0187212)
(-0.100354 -2.30143e-19 0.0215599)
(-0.130276 0 0.0327074)
(-0.31331 0 0.0617435)
(-0.160007 4.1219e-19 0.035311)
(-0.493386 0 0.0991784)
(-0.231019 0 0.0423709)
(-0.534826 0 0.10983)
(-0.384002 -3.45623e-19 0.0721877)
(-0.559543 0 0.114019)
(-0.545121 -3.1364e-19 0.102157)
(-0.545748 0 0.109957)
(-0.709091 0 0.138262)
(-0.628831 0 0.123493)
(-0.815712 0 0.153591)
(-0.579286 0 0.123872)
(-1.23905 -4.512e-19 0.240567)
(-0.574416 -4.49963e-19 0.10089)
(-1.15061 4.0802e-19 0.238448)
(-1.01763 0 0.188333)
(-1.01882 0 0.206377)
(-1.38859 -1.421e-18 0.267368)
(-1.00781 0 0.182615)
(-1.19278 6.47801e-19 0.25039)
(-1.68136 0 0.30893)
(-0.663908 6.13754e-19 0.109648)
(-1.341 5.54301e-19 0.280152)
(-1.29919 0 0.238936)
(-0.990901 -5.15785e-19 0.160132)
(-0.264029 0 0.0292138)
(32.644 4.68269e-21 1.0387)
(33.0549 1.13827e-20 1.12537)
(33.5008 -6.90876e-21 1.042)
(33.8657 -7.82528e-22 0.77828)
(34.0388 7.48551e-21 0.387633)
(33.9641 0 -0.0679959)
(33.6335 0 -0.539495)
(33.0674 -1.6397e-20 -0.991126)
(32.301 -3.04519e-20 -1.39926)
(31.3768 -7.08975e-22 -1.75084)
(30.3385 1.39111e-20 -2.04139)
(29.2265 -1.29808e-20 -2.27224)
(28.0759 1.17372e-20 -2.44823)
(26.9149 0 -2.57596)
(25.7651 0 -2.66259)
(24.642 -9.52779e-21 -2.71515)
(23.556 3.48587e-20 -2.74002)
(22.5137 3.20768e-20 -2.74278)
(21.5186 0 -2.72813)
(20.5718 0 -2.69998)
(19.6734 0 -2.66149)
(18.822 -6.72758e-23 -2.61519)
(18.016 -2.06128e-20 -2.56312)
(17.2532 9.35956e-21 -2.50688)
(16.5312 1.70038e-20 -2.44776)
(15.8477 -3.08634e-20 -2.38674)
(15.2004 1.3921e-20 -2.32462)
(14.5868 1.25395e-20 -2.26201)
(14.0048 1.12557e-20 -2.19938)
(13.4523 0 -2.13712)
(12.9274 -8.96874e-21 -2.0755)
(12.4282 7.93039e-21 -2.01473)
(11.953 -6.98412e-21 -1.95499)
(11.5002 -1.21944e-20 -1.89638)
(11.0683 -2.11267e-20 -1.83898)
(10.656 0 -1.78287)
(10.262 0 -1.72805)
(9.88519 -6.36734e-21 -1.67457)
(9.52436 0 -1.6224)
(9.17856 4.08209e-21 -1.57156)
(8.84681 3.07313e-21 -1.522)
(8.52831 0 -1.47374)
(8.22214 5.15945e-21 -1.4267)
(7.92767 1.00999e-21 -1.3809)
(7.64404 0 -1.33625)
(7.37077 -1.72493e-21 -1.29277)
(7.10702 -2.89949e-21 -1.25035)
(6.85248 0 -1.20904)
(6.60628 9.9429e-21 -1.1687)
(6.3683 -5.8528e-21 -1.1294)
(6.1376 -1.33069e-20 -1.09095)
(5.91428 0 -1.0535)
(5.69724 -2.48979e-23 -1.01679)
(5.48688 3.4381e-20 -0.981018)
(5.28188 0 -0.94588)
(5.08299 0 -0.911645)
(4.88856 -1.98571e-20 -0.877917)
(4.69978 -2.05474e-20 -0.845069)
(4.5146 4.22122e-20 -0.812596)
(4.33474 4.31887e-20 -0.780998)
(4.1576 4.39687e-20 -0.749632)
(3.9856 -4.45978e-20 -0.719154)
(3.81542 -9.01122e-20 -0.688755)
(3.6503 0 -0.659278)
(3.48611 0 -0.629715)
(3.32702 -9.14292e-20 -0.60113)
(3.16794 0 -0.572285)
(3.01412 0 -0.544493)
(2.85943 9.07755e-20 -0.516266)
(2.71021 0 -0.489183)
(2.55931 -8.94124e-20 -0.461497)
(2.41415 -3.24053e-23 -0.435054)
(2.26661 8.75333e-20 -0.407864)
(2.12516 0 -0.38202)
(1.98064 0 -0.355308)
(1.84294 0 -0.330082)
(1.70102 1.64549e-19 -0.303826)
(1.56796 0 -0.279367)
(1.4275 -1.58241e-19 -0.25344)
(1.30168 3.09821e-19 -0.230191)
(1.1599 0 -0.204168)
(1.04668 0 -0.183097)
(0.89826 0 -0.156035)
(0.806371 -2.53777e-23 -0.138824)
(0.643702 -1.36114e-19 -0.109177)
(0.583238 -2.64871e-19 -0.097995)
(0.400612 -2.56154e-19 -0.0642594)
(0.375512 2.48789e-19 -0.0604651)
(0.179459 0 -0.0229147)
(0.173541 2.32378e-19 -0.0248385)
(0.000118351 0 0.0117588)
(-0.0474099 2.15567e-19 0.0131956)
(-0.0998798 0 0.0312151)
(-0.30906 0 0.0620175)
(-0.145729 0 0.035643)
(-0.535547 -3.6264e-19 0.109286)
(-0.231547 -3.55305e-19 0.0426789)
(-0.604153 0 0.126538)
(-0.414522 3.2341e-19 0.0778958)
(-0.642147 -3.04069e-19 0.13307)
(-0.60914 2.93466e-19 0.11369)
(-0.634162 -2.77794e-19 0.129741)
(-0.812929 0 0.15923)
(-0.730634 0 0.144489)
(-0.945302 0 0.177737)
(-0.692558 0 0.15137)
(-1.432 4.21912e-19 0.278068)
(-0.67529 1.98168e-23 0.117499)
(-1.36508 -7.62926e-19 0.28672)
(-1.16624 0 0.213733)
(-1.21174 0 0.248348)
(-1.59486 6.64033e-19 0.306552)
(-1.17662 0 0.211311)
(-1.40006 -6.05372e-19 0.298741)
(-1.91069 0 0.345568)
(-0.763722 -1.1469e-18 0.122868)
(-1.57033 0 0.332651)
(-1.42149 0 0.25633)
(-1.1093 4.81824e-19 0.16925)
(-0.218686 0 0.0104272)
(32.6682 0 0.685758)
(32.9695 -5.23697e-21 0.728675)
(33.3063 0 0.678783)
(33.6365 -6.59007e-21 0.515333)
(33.8972 -1.34354e-20 0.253166)
(34.0373 0 -0.0759945)
(34.0285 6.70258e-21 -0.440734)
(33.8592 0 -0.814959)
(33.5302 9.01066e-22 -1.17847)
(33.0508 -2.58131e-20 -1.51679)
(32.4371 0 -1.8206)
(31.7095 0 -2.08501)
(30.8901 -1.10395e-20 -2.30842)
(30.0013 0 -2.49156)
(29.0642 0 -2.63673)
(28.0977 0 -2.74719)
(27.118 -1.62837e-20 -2.82673)
(26.1385 -1.49997e-20 -2.87931)
(25.1697 -1.36078e-20 -2.9088)
(24.2197 0 -2.91884)
(23.2942 0 -2.91272)
(22.3973 -1.05971e-20 -2.89335)
(21.5315 9.66872e-21 -2.86324)
(20.6984 -8.80293e-21 -2.82454)
(19.8983 -1.59924e-20 -2.77904)
(19.1313 2.89114e-20 -2.72828)
(18.3968 -5.42181e-23 -2.67348)
(17.694 -1.17933e-20 -2.6157)
(17.0218 -1.05858e-20 -2.55578)
(16.3791 0 -2.49441)
(15.7644 0 -2.43217)
(15.1766 -7.45799e-21 -2.3695)
(14.6144 0 -2.30678)
(14.0763 1.14674e-20 -2.24431)
(13.5611 9.93218e-21 -2.18233)
(13.0676 -8.50686e-21 -2.12101)
(12.5946 0 -2.06051)
(12.1411 5.98706e-21 -2.00094)
(11.7058 4.87099e-21 -1.94238)
(11.2878 3.70979e-24 -1.8849)
(10.8861 -5.78335e-21 -1.82851)
(10.4998 0 -1.77329)
(10.1281 -2.43241e-21 -1.71919)
(9.77007 0 -1.66627)
(9.42493 0 -1.61447)
(9.09212 0 -1.56384)
(8.77068 1.37831e-23 -1.51428)
(8.46028 0 -1.46586)
(8.15992 -4.66544e-21 -1.41845)
(7.86948 1.09874e-20 -1.37214)
(7.58784 1.25047e-20 -1.32674)
(7.31516 0 -1.28243)
(7.05012 -1.50642e-20 -1.23891)
(6.79323 -3.22572e-20 -1.19643)
(6.54288 0 -1.15464)
(6.3 0 -1.11388)
(6.06259 1.86528e-20 -1.07365)
(5.83212 1.92628e-20 -1.03445)
(5.60608 -1.98146e-20 -0.99564)
(5.38659 -4.04942e-20 -0.957853)
(5.17047 0 -0.920302)
(4.96066 0 -0.883798)
(4.75313 2.85166e-23 -0.84735)
(4.55183 -4.25864e-20 -0.812001)
(4.35171 0 -0.776511)
(4.15787 4.29004e-20 -0.742196)
(3.96409 0 -0.707531)
(3.77676 0 -0.67414)
(3.58841 0 -0.640184)
(3.40676 0 -0.60762)
(3.22307 3.43805e-23 -0.574283)
(3.04642 -3.21126e-23 -0.542467)
(2.86682 -8.20547e-20 -0.509695)
(2.6947 0 -0.478577)
(2.51876 -7.97865e-20 -0.44635)
(2.35115 0 -0.415945)
(2.17829 -1.54298e-19 -0.384245)
(2.01618 1.51395e-19 -0.35471)
(1.84504 -1.48276e-19 -0.323409)
(1.6914 -1.45197e-19 -0.295232)
(1.51872 0 -0.263863)
(1.37977 1.38459e-19 -0.238146)
(1.19929 0 -0.205634)
(1.08529 -1.31416e-19 -0.18434)
(0.887992 -1.2748e-19 -0.14885)
(0.810988 2.48132e-19 -0.134617)
(0.589815 0 -0.0942061)
(0.555209 -4.65996e-19 -0.0889521)
(0.316809 0 -0.0435091)
(0.30738 2.17539e-19 -0.0459021)
(0.0918024 0 -0.000180628)
(0.0398947 2.01759e-19 -0.000895469)
(-0.0421418 0 0.026003)
(-0.274187 3.71071e-19 0.0569944)
(-0.109205 -3.61139e-19 0.0329494)
(-0.552009 3.39358e-19 0.115047)
(-0.212212 3.3246e-19 0.0397958)
(-0.655592 0 0.140725)
(-0.424973 -6.05081e-19 0.0800021)
(-0.712138 5.68849e-19 0.150611)
(-0.65396 0 0.121659)
(-0.714145 2.59804e-19 0.148831)
(-0.899446 0 0.177178)
(-0.824265 0 0.164454)
(-1.06156 -4.47675e-19 0.199629)
(-0.801849 0 0.179356)
(-1.60553 0 0.311802)
(-0.773513 3.93239e-19 0.13364)
(-1.56949 7.1308e-19 0.334255)
(-1.29842 3.4824e-19 0.235399)
(-1.39962 0 0.290439)
(-1.77614 0 0.34061)
(-1.33699 0 0.238103)
(-1.58952 0 0.344939)
(-2.1094 5.33067e-19 0.374538)
(-0.852068 5.35692e-19 0.133427)
(-1.7796 0 0.382028)
(-1.49099 0 0.261802)
(-1.20292 0 0.170627)
(-0.129386 0 -0.0195731)
(32.6669 4.18846e-21 0.397592)
(32.8988 0 0.41322)
(33.1544 4.90618e-21 0.372236)
(33.419 0 0.258616)
(33.6618 6.00848e-21 0.0729126)
(33.8512 0 -0.170174)
(33.9643 -6.29958e-21 -0.451509)
(33.9862 1.15506e-20 -0.753154)
(33.9075 2.35838e-20 -1.05995)
(33.7237 7.28749e-22 -1.35991)
(33.4343 0 -1.64404)
(33.0426 0 -1.9061)
(32.5554 0 -2.14225)
(31.9817 0 -2.35041)
(31.3326 0 -2.52984)
(30.62 0 -2.68079)
(29.8566 1.46717e-20 -2.8043)
(29.0545 -1.35938e-20 -2.90194)
(28.2252 1.2786e-20 -2.9757)
(27.3794 0 -3.0278)
(26.5261 0 -3.06057)
(25.6732 9.7568e-21 -3.07633)
(24.8272 8.92554e-21 -3.07733)
(23.9933 8.14475e-21 -3.06568)
(23.1754 0 -3.04332)
(22.3765 -1.35495e-20 -3.01197)
(21.5989 -2.44268e-20 -2.97319)
(20.8441 1.09822e-20 -2.92831)
(20.1129 0 -2.87851)
(19.4058 0 -2.8248)
(18.7229 0 -2.76802)
(18.064 6.97214e-21 -2.70893)
(17.4288 0 -2.64812)
(16.8167 0 -2.58612)
(16.2271 9.30481e-21 -2.52337)
(15.6592 7.9914e-21 -2.46023)
(15.1122 0 -2.397)
(14.5854 5.62008e-21 -2.33393)
(14.0778 -9.14932e-21 -2.27121)
(13.5888 -3.60853e-21 -2.20902)
(13.1174 2.71831e-21 -2.14748)
(12.6629 0 -2.08672)
(12.2244 0 -2.02677)
(11.8013 0 -1.96775)
(11.3926 -3.32632e-22 -1.90965)
(10.9978 0 -1.85257)
(10.6159 2.54624e-21 -1.79643)
(10.2468 3.48955e-21 -1.74136)
(9.88912 0 -1.68721)
(9.54297 -5.15197e-21 -1.63416)
(9.20703 0 -1.58198)
(8.88157 0 -1.5309)
(8.56502 -1.4097e-20 -1.48061)
(8.25809 2.17277e-23 -1.43142)
(7.95883 1.60003e-20 -1.3829)
(7.66844 0 -1.3355)
(7.38452 0 -1.28863)
(7.10887 -1.8078e-20 -1.24289)
(6.83847 0 -1.19753)
(6.57592 3.79986e-20 -1.15333)
(6.31737 0 -1.10933)
(6.06642 0 -1.06653)
(5.81818 7.92706e-20 -1.02373)
(5.57745 7.98748e-20 -0.98221)
(5.33812 4.01057e-20 -0.94046)
(5.10636 0 -0.900095)
(4.87466 0 -0.859252)
(4.65075 4.00776e-20 -0.819923)
(4.42557 7.97731e-20 -0.779859)
(4.2085 0 -0.741462)
(3.98891 7.86243e-20 -0.702077)
(3.77784 -7.7847e-20 -0.664525)
(3.56311 7.69209e-20 -0.625755)
(3.35744 -7.58904e-20 -0.588992)
(3.14698 7.47815e-20 -0.550818)
(2.94664 0 -0.514852)
(2.73973 0 -0.477262)