/*--------------------------------*- C++ -*----------------------------------*\
| =========                 |                                                 |
| \\      /  F ield         | OpenFOAM: The Open Source CFD Toolbox           |
|  \\    /   O peration     | Version:  2412                                  |
|   \\  /    A nd           | Website:  www.openfoam.com                      |
|    \\/     M anipulation  |                                                 |
\*---------------------------------------------------------------------------*/
FoamFile
{
    version     2.0;
    format      ascii;
    arch        "LSB;label=32;scalar=64";
    class       volVectorField;
    location    "0.57";
    object      U;
}
// * * * * * * * * * * * * * * * * * * * * * * * * * * * * * * * * * * * * * //

dimensions      [0 1 -1 0 0 0 0];

internalField   nonuniform List<vector> 
12600
(
(18.7232 1.24739e-21 2.08882)
(11.6157 1.61047e-20 0.449276)
(7.35177 1.89417e-20 -0.478413)
(5.09195 0 -0.70958)
(3.97979 1.71336e-20 -0.682723)
(3.33941 1.59614e-20 -0.608076)
(2.89831 0 -0.540425)
(2.56713 0 -0.485024)
(2.3075 -4.80359e-20 -0.439594)
(2.09733 0 -0.401866)
(1.92291 2.01631e-20 -0.370001)
(1.77531 1.84696e-20 -0.342672)
(1.64843 -1.69268e-20 -0.318933)
(1.53793 0 -0.298088)
(1.44064 -1.41991e-20 -0.279614)
(1.35416 0 -0.263107)
(1.27667 4.77561e-20 -0.248255)
(1.20674 0 -0.234806)
(1.14324 -2.00077e-20 -0.222559)
(1.08526 -1.83089e-20 -0.211351)
(1.03206 1.67235e-20 -0.201048)
(0.983027 5.57271e-24 -0.191537)
(0.937658 0 -0.182725)
(0.895528 -2.52819e-20 -0.174533)
(0.856274 0 -0.166893)
(0.819592 0 -0.159749)
(0.785218 -1.87946e-20 -0.15305)
(0.752924 0 -0.146754)
(0.722513 3.90099e-24 -0.140822)
(0.693812 1.36326e-20 -0.135222)
(0.666669 1.21568e-20 -0.129925)
(0.640951 1.07894e-20 -0.124905)
(0.616538 -9.52292e-21 -0.120139)
(0.593325 -1.67005e-20 -0.115607)
(0.571217 -1.453e-20 -0.111291)
(0.550131 1.25118e-20 -0.107174)
(0.529988 0 -0.103241)
(0.510721 -8.95172e-21 -0.0994801)
(0.492266 0 -0.0958779)
(0.474569 5.9092e-21 -0.0924239)
(0.457574 0 -0.0891076)
(0.441238 1.72502e-23 -0.0859203)
(0.425514 0 -0.082853)
(0.410365 1.57105e-23 -0.0798985)
(0.395751 3.53783e-22 -0.0770488)
(0.381643 1.38563e-21 -0.0742985)
(0.368003 -3.00195e-21 -0.0716399)
(0.354809 0 -0.0690691)
(0.342025 0 -0.0665787)
(0.329638 -6.99877e-21 -0.0641663)
(0.31761 -1.61807e-20 -0.0618241)
(0.305935 -1.81508e-20 -0.0595517)
(0.294573 1.91743e-23 -0.0573405)
(0.283529 -2.14874e-20 -0.055192)
(0.272756 0 -0.0530966)
(0.262271 2.41658e-20 -0.051058)
(0.252018 2.52638e-20 -0.0490648)
(0.242029 2.62089e-20 -0.0471237)
(0.232235 0 -0.0452209)
(0.222687 0 -0.0433665)
(0.213298 0 -0.0415433)
(0.204143 -5.7675e-20 -0.0397662)
(0.195111 0 -0.0380133)
(0.186308 0 -0.0363052)
(0.17759 1.18933e-19 -0.0346143)
(0.169103 0 -0.0329684)
(0.160664 0 -0.0313321)
(0.152464 0 -0.0297426)
(0.144272 -1.19424e-19 -0.0281551)
(0.136336 1.18935e-19 -0.0266173)
(0.128367 1.18209e-19 -0.0250736)
(0.12068 2.32742e-23 -0.0235846)
(0.112917 -1.16201e-19 -0.0220812)
(0.10547 0 -0.020639)
(0.0979017 1.13518e-19 -0.0191738)
(0.0906941 0 -0.0177782)
(0.0833193 0 -0.0163507)
(0.0763585 0 -0.015003)
(0.0691842 2.88256e-23 -0.0136145)
(0.0624858 2.09109e-19 -0.0123176)
(0.0555279 2.04861e-19 -0.010971)
(0.0491146 -2.00506e-19 -0.00972922)
(0.0423958 -1.95962e-19 -0.00842889)
(0.0362962 0 -0.00724769)
(0.0298434 0 -0.00599869)
(0.02409 3.63638e-19 -0.00488437)
(0.0179298 -7.07526e-19 -0.00369178)
(0.0125582 6.87778e-19 -0.00265129)
(0.00670821 3.33859e-19 -0.00151848)
(0.0017576 0 -0.000559473)
(-0.00378966 -6.27394e-19 0.00051504)
(-0.00828846 3.03609e-19 0.00138587)
(-0.0135881 -2.93531e-19 0.00241246)
(-0.0175683 5.67018e-19 0.00318327)
(-0.0226437 0 0.00416658)
(-0.0259401 0 0.0048049)
(-0.0310388 0 0.00579204)
(-0.0340261 0 0.00636784)
(-0.0399549 0 0.00751221)
(-0.0430736 0 0.00810822)
(-0.0507568 -4.33404e-19 0.00958683)
(-0.0530595 -8.31522e-19 0.0100204)
(-0.0633319 -7.99057e-19 0.0119939)
(-0.0632516 0 0.0119738)
(-0.0685192 0 0.0129998)
(-0.0712728 0 0.0135454)
(-0.115507 -6.74949e-19 0.0218716)
(-0.0624877 -1.33415e-18 0.0113219)
(-0.0180569 6.35828e-19 0.003575)
(-0.0837069 0 0.0168805)
(-0.257597 -1.09576e-18 0.0490798)
(-0.266932 0 0.0502231)
(-0.181734 -1.16274e-18 0.0332436)
(-0.0186045 1.15072e-18 0.00241258)
(0.0444337 -1.11048e-18 -0.00913829)
(0.112923 -1.0465e-18 -0.0218338)
(0.0896038 9.77738e-19 -0.017173)
(0.102183 4.59232e-24 -0.019591)
(0.0582167 8.58411e-19 -0.0113469)
(0.124648 0 -0.0242837)
(29.1282 -1.25925e-21 4.01775)
(25.0934 0 1.85341)
(20.2384 -1.91711e-20 -0.216435)
(16.0775 0 -1.2139)
(13.1218 -1.73613e-20 -1.50915)
(11.0813 -3.04986e-20 -1.52016)
(9.6105 -1.41225e-20 -1.44261)
(8.49942 0 -1.34512)
(7.62721 3.56218e-22 -1.24985)
(6.92114 -2.19832e-20 -1.16285)
(6.33562 2.01922e-20 -1.08484)
(5.84067 1.85449e-20 -1.01507)
(5.4157 -1.70301e-20 -0.952556)
(5.04606 1.56359e-20 -0.896312)
(4.72101 2.87602e-20 -0.845482)
(4.43249 0 -0.799334)
(4.1743 -6.5062e-23 -0.757251)
(3.94162 2.21293e-20 -0.71871)
(3.73061 2.02988e-20 -0.683275)
(3.5382 0 -0.650573)
(3.36188 0 -0.620291)
(3.19959 1.54682e-20 -0.592159)
(3.04961 0 -0.565948)
(2.9105 1.28161e-20 -0.541459)
(2.78105 -2.32619e-20 -0.518521)
(2.66022 0 -0.496984)
(2.54713 1.90488e-20 -0.476717)
(2.441 0 -0.457606)
(2.34117 -1.54222e-20 -0.43955)
(2.24705 -2.7618e-20 -0.422459)
(2.15814 -2.46237e-20 -0.406253)
(2.07399 -1.09209e-20 -0.390862)
(1.99419 9.63626e-21 -0.376222)
(1.91839 3.38062e-20 -0.362275)
(1.84627 2.9406e-20 -0.348969)
(1.77755 0 -0.33626)
(1.71197 0 -0.324103)
(1.6493 -1.69873e-23 -0.312462)
(1.58934 0 -0.301299)
(1.53188 -5.96558e-21 -0.290585)
(1.47677 0 -0.280288)
(1.42383 -6.71012e-21 -0.270384)
(1.37293 0 -0.260844)
(1.32394 -2.30313e-21 -0.251649)
(1.27672 0 -0.242775)
(1.23117 -1.39524e-21 -0.234205)
(1.18718 0 -0.225916)
(1.14466 0 -0.217898)
(1.1035 5.79082e-21 -0.210126)
(1.06365 0 -0.202596)
(1.02499 0 -0.195282)
(0.987497 0 -0.188185)
(0.951042 1.99644e-20 -0.181276)
(0.915635 4.30538e-20 -0.174563)
(0.881129 0 -0.168013)
(0.847569 0 -0.161641)
(0.814783 -2.52391e-20 -0.155409)
(0.782862 -2.62077e-20 -0.149341)
(0.751594 0 -0.14339)
(0.721128 0 -0.137593)
(0.691199 0 -0.13189)
(0.66203 0 -0.126334)
(0.633281 -5.81789e-20 -0.120851)
(0.605269 5.87341e-20 -0.115511)
(0.577561 -1.18254e-19 -0.110221)
(0.550589 0 -0.105076)
(0.523799 0 -0.0999577)
(0.497768 0 -0.0949893)
(0.471794 4.67211e-23 -0.090023)
(0.446627 -1.17798e-19 -0.0852175)
(0.421386 -1.16972e-19 -0.0803881)
(0.397027 2.3191e-19 -0.0757354)
(0.372457 3.55324e-23 -0.0710316)
(0.348873 -1.13394e-19 -0.0665259)
(0.324935 -1.11903e-19 -0.0619411)
(0.302119 0 -0.0575815)
(0.278802 0 -0.0531137)
(0.256771 0 -0.048904)
(0.234093 2.092e-19 -0.0445571)
(0.212891 0 -0.040506)
(0.190894 0 -0.0362889)
(0.170591 1.96239e-19 -0.0324097)
(0.149342 1.91587e-19 -0.0283357)
(0.130026 0 -0.0246452)
(0.109607 0 -0.0207306)
(0.0913811 0 -0.0172481)
(0.0718742 6.88655e-19 -0.0135094)
(0.0548541 -4.63654e-23 -0.0102563)
(0.0363165 3.24213e-19 -0.0067053)
(0.0206291 -3.14119e-19 -0.003705)
(0.00304366 6.08002e-19 -0.000338678)
(-0.0112064 2.93877e-19 0.00239044)
(-0.0279914 5.67701e-19 0.00560027)
(-0.0405868 0 0.00801474)
(-0.0566513 0 0.0110819)
(-0.0671318 0 0.0130977)
(-0.0833042 0 0.0161901)
(-0.0927481 4.69962e-19 0.0180255)
(-0.111372 0 0.021592)
(-0.120872 0 0.0234618)
(-0.144523 -4.15549e-19 0.0279721)
(-0.151074 3.98274e-19 0.029295)
(-0.182196 1.52935e-18 0.0352119)
(-0.180462 -7.3312e-19 0.0348444)
(-0.198675 0 0.0383143)
(-0.208246 0 0.0408194)
(-0.330146 0 0.0635477)
(-0.168144 6.35383e-19 0.0301927)
(-0.0658571 -6.0512e-19 0.0129688)
(-0.268585 0 0.056352)
(-0.752685 2.08199e-18 0.147845)
(-0.736486 1.0633e-18 0.140371)
(-0.483972 2.20546e-18 0.0881996)
(-0.0126699 0 -0.00172694)
(0.156845 0 -0.0325647)
(0.351446 -9.90453e-19 -0.0683179)
(0.276041 0 -0.0528351)
(0.31868 -8.64668e-19 -0.0607593)
(0.19358 -8.10751e-19 -0.0374597)
(0.398726 0 -0.0778891)
(31.872 0 3.88543)
(31.062 0 2.81029)
(28.5378 -1.29987e-20 1.01738)
(25.2008 0 -0.387456)
(21.9546 0 -1.23022)
(19.1864 1.51588e-20 -1.65441)
(16.9319 1.33741e-20 -1.82248)
(15.1097 0 -1.85403)
(13.6243 4.20863e-22 -1.82035)
(12.3958 2.08261e-20 -1.75791)
(11.3638 -3.80503e-20 -1.68419)
(10.484 -1.75712e-20 -1.60755)
(9.72443 1.1479e-22 -1.53195)
(9.06118 -1.48162e-20 -1.45926)
(8.47639 -1.35997e-20 -1.39027)
(7.95637 1.2428e-20 -1.32522)
(7.49046 -2.28843e-20 -1.26411)
(7.07025 -2.09706e-20 -1.20678)
(6.68902 0 -1.15301)
(6.34132 0 -1.10256)
(6.0227 1.60229e-20 -1.05518)
(5.72947 1.46256e-20 -1.01063)
(5.45855 0 -0.968685)
(5.20737 0 -0.929143)
(4.97372 2.20421e-20 -0.89181)
(4.75573 0 -0.856512)
(4.5518 -3.60925e-20 -0.82309)
(4.36054 1.62655e-20 -0.791401)
(4.18073 0 -0.761314)
(4.01133 1.30856e-20 -0.732709)
(3.85138 1.16671e-20 -0.705479)
(3.70009 0 -0.679525)
(3.55672 -9.1411e-21 -0.654758)
(3.42063 -1.6019e-20 -0.631095)
(3.29123 1.17662e-23 -0.608463)
(3.16802 0 -0.586792)
(3.05051 0 -0.566018)
(2.9383 8.58034e-21 -0.546086)
(2.831 0 -0.52694)
(2.72826 0 -0.508533)
(2.62977 0 -0.490817)
(2.53525 0 -0.473753)
(2.44442 0 -0.457298)
(2.35705 0 -0.441421)
(2.2729 0 -0.426081)
(2.19179 1.27829e-21 -0.411255)
(2.11349 -2.80617e-21 -0.396903)
(2.03788 0 -0.38301)
(1.96473 -5.47866e-21 -0.369536)
(1.89396 0 -0.356473)
(1.82535 0 -0.343778)
(1.75885 1.71515e-20 -0.331454)
(1.69424 0 -0.319452)
(1.63153 -2.03407e-20 -0.307787)
(1.57045 2.16411e-20 -0.296401)
(1.51109 0 -0.285323)
(1.45313 2.38565e-20 -0.274485)
(1.39674 0 -0.263932)
(1.34154 0 -0.253579)
(1.28778 0 -0.243493)
(1.23501 5.33534e-20 -0.233571)
(1.1836 5.4232e-20 -0.223904)
(1.13297 2.79872e-23 -0.214362)
(1.08366 -1.10897e-19 -0.205071)
(1.03492 2.45538e-23 -0.195866)
(0.987481 0 -0.186914)
(0.940404 0 -0.178006)
(0.894665 -1.11991e-19 -0.169363)
(0.849065 3.76087e-23 -0.16072)
(0.804879 0 -0.152361)
(0.760601 0 -0.143956)
(0.717863 -1.0933e-19 -0.135863)
(0.674791 2.8584e-23 -0.127677)
(0.633433 2.66336e-23 -0.11984)
(0.591492 0 -0.11186)
(0.551492 0 -0.104277)
(0.510652 -2.04317e-19 -0.0964999)
(0.472035 2.00759e-19 -0.0891773)
(0.432317 0 -0.0816082)
(0.395152 0 -0.0745604)
(0.356625 0 -0.0672145)
(0.321028 0 -0.060464)
(0.283801 0 -0.0533643)
(0.249925 0 -0.04694)
(0.214133 0 -0.0401145)
(0.18216 0 -0.0340501)
(0.147947 -6.47426e-19 -0.0275281)
(0.118082 -3.14291e-19 -0.0218608)
(0.08555 -3.04718e-19 -0.0156645)
(0.0580204 2.95171e-19 -0.0104347)
(0.0271495 -5.71146e-19 -0.00456127)
(0.00215049 -2.76037e-19 0.000199458)
(-0.0272951 -2.6655e-19 0.00579162)
(-0.0493753 0 0.0100023)
(-0.0775445 0 0.0153365)
(-0.0959828 0 0.018878)
(-0.124363 0 0.0242756)
(-0.140882 -4.40902e-19 0.0275143)
(-0.173278 0 0.033695)
(-0.189394 0 0.0369248)
(-0.229862 3.8963e-19 0.0445654)
(-0.24034 0 0.0467672)
(-0.292915 -7.16689e-19 0.0566047)
(-0.288059 6.87017e-19 0.0554775)
(-0.322015 0 0.0620425)
(-0.338578 0 0.0674517)
(-0.528719 0 0.100825)
(-0.256229 5.94835e-19 0.0425067)
(-0.125693 0 0.0260913)
(-0.466916 -5.1456e-19 0.104409)
(-1.22476 -1.56602e-22 0.243977)
(-1.14051 -9.95139e-19 0.212124)
(-0.726246 -2.06306e-18 0.122814)
(0.0378344 0 -0.0209692)
(0.295694 9.8372e-19 -0.0643859)
(0.607767 9.26448e-19 -0.118934)
(0.475464 8.64903e-19 -0.0904877)
(0.554179 0 -0.104913)
(0.353288 7.5808e-19 -0.0691837)
(0.703647 0 -0.139275)
(32.3953 0 2.94163)
(32.9631 0 2.75741)
(32.4128 1.2288e-20 1.71468)
(30.7737 0 0.514809)
(28.5249 -1.2339e-20 -0.489364)
(26.1127 2.51023e-20 -1.21169)
(23.7969 0 -1.67442)
(21.6935 -2.19283e-20 -1.93843)
(19.836 2.1031e-20 -2.0676)
(18.2151 1.90286e-20 -2.11192)
(16.8032 1.78905e-20 -2.10518)
(15.5694 -1.62693e-20 -2.06863)
(14.4851 1.51523e-20 -2.01523)
(13.5261 -2.7639e-20 -1.95279)
(12.6725 0 -1.88603)
(11.908 -2.3445e-20 -1.81783)
(11.2191 0 -1.74994)
(10.5952 0 -1.6834)
(10.0273 0 -1.61883)
(9.50804 1.65363e-20 -1.55656)
(9.0312 -3.44594e-23 -1.49677)
(8.59168 -2.62558e-23 -1.4395)
(8.18512 1.25883e-20 -1.38474)
(7.80783 0 -1.33243)
(7.45664 0 -1.28247)
(7.12884 0 -1.23478)
(6.82209 3.41201e-20 -1.18923)
(6.53433 -6.29637e-24 -1.14572)
(6.26379 0 -1.10413)
(6.00891 0 -1.06437)
(5.76829 0 -1.02631)
(5.54074 0 -0.989877)
(5.32514 1.72904e-20 -0.954961)
(5.12055 0 -0.921478)
(4.92609 -1.31855e-20 -0.889345)
(4.74099 0 -0.858485)
(4.56454 0 -0.828823)
(4.39611 -8.13409e-21 -0.800292)
(4.23512 0 -0.772825)
(4.08106 0 -0.746366)
(3.93344 4.15749e-21 -0.720853)
(3.79183 -6.07333e-21 -0.696239)
(3.65583 0 -0.672468)
(3.52508 -2.12463e-21 -0.6495)
(3.39922 0 -0.627283)
(3.27798 -2.39606e-21 -0.605785)
(3.16101 1.85174e-23 -0.584956)
(3.04811 0 -0.564774)
(2.93897 0 -0.545184)
(2.83342 6.22515e-21 -0.526178)
(2.73116 1.44057e-20 -0.507697)
(2.63211 -3.2362e-20 -0.489745)
(2.53594 0 -0.472255)
(2.44263 -1.91539e-20 -0.455246)
(2.35183 -2.04284e-20 -0.43864)
(2.26361 -2.1508e-20 -0.422476)
(2.17755 -2.24735e-20 -0.406658)
(2.09385 0 -0.391251)
(2.01198 0 -0.376134)
(1.93228 -4.92832e-20 -0.361405)
(1.8541 -1.00622e-19 -0.346912)
(1.77797 -5.115e-20 -0.332791)
(1.70305 3.00465e-23 -0.318851)
(1.6301 5.2271e-20 -0.305277)
(1.55805 5.25935e-20 -0.291827)
(1.48795 0 -0.278747)
(1.41843 0 -0.265732)
(1.35089 1.05538e-19 -0.253102)
(1.28361 2.10303e-19 -0.240473)
(1.21842 0 -0.228258)
(1.15315 1.03819e-19 -0.215977)
(1.09013 1.02905e-19 -0.204151)
(1.02667 1.01838e-19 -0.192189)
(0.965723 2.01201e-19 -0.180737)
(0.903961 0 -0.169075)
(0.84503 0 -0.157992)
(0.784908 1.92267e-19 -0.146625)
(0.728021 -3.77728e-19 -0.135921)
(0.669556 -1.85219e-19 -0.124855)
(0.614807 0 -0.11455)
(0.558087 0 -0.103808)
(0.505636 0 -0.093934)
(0.450813 0 -0.0835468)
(0.400881 0 -0.074147)
(0.348146 0 -0.0641556)
(0.301002 -3.12944e-19 -0.0552792)
(0.250562 4.44407e-23 -0.0457271)
(0.206514 2.95102e-19 -0.0374293)
(0.158524 0 -0.0283502)
(0.117914 2.77054e-19 -0.0206904)
(0.0723594 2.68046e-19 -0.012083)
(0.0354935 0 -0.00511054)
(-0.0079306 -2.50063e-19 0.00307738)
(-0.0404715 -4.82316e-19 0.00924332)
(-0.0819977 0 0.0170437)
(-0.109259 0 0.0222609)
(-0.151093 0 0.0301714)
(-0.175353 -4.13286e-19 0.0349464)
(-0.222657 0 0.0439344)
(-0.245615 0 0.0485977)
(-0.303749 3.65046e-19 0.0594866)
(-0.317787 -3.4972e-19 0.0625556)
(-0.39236 0 0.0763307)
(-0.38295 0 0.0741478)
(-0.435614 0 0.0844588)
(-0.458099 0 0.0930625)
(-0.707013 0 0.134026)
(-0.325607 -8.65192e-23 0.050117)
(-0.196392 0 0.0424837)
(-0.670777 4.81508e-19 0.158141)
(-1.66075 -9.11482e-19 0.33585)
(-1.46681 0 0.268109)
(-0.901843 3.62385e-22 0.141165)
(0.136268 0 -0.0525817)
(0.463571 -7.24688e-23 -0.103489)
(0.883959 0 -0.173889)
(0.691392 -8.08655e-19 -0.13105)
(0.81272 0 -0.152986)
(0.541605 7.08573e-19 -0.106763)
(1.04188 0 -0.208216)
(32.4994 0 2.08846)
(33.258 0 2.21539)
(33.6063 0 1.74159)
(33.2444 0 0.948738)
(32.2248 1.16472e-20 0.107929)
(30.7545 -9.00417e-22 -0.640425)
(29.0386 0 -1.24093)
(27.2357 2.06973e-20 -1.68441)
(25.4554 0 -1.98799)
(23.7636 -3.54206e-20 -2.17985)
(22.1928 0 -2.28854)
(20.7531 1.53594e-20 -2.33803)
(19.442 0 -2.34659)
(18.2508 2.60956e-20 -2.32747)
(17.1684 -1.18939e-20 -2.28996)
(16.1833 2.19905e-20 -2.2405)
(15.2846 -2.01451e-20 -2.18354)
(14.4625 -1.85044e-20 -2.12213)
(13.708 0 -2.05838)
(13.0137 -1.56148e-20 -1.99374)
(12.3727 -1.42784e-20 -1.92921)
(11.7793 -2.60398e-20 -1.86548)
(11.2285 -1.18867e-20 -1.80299)
(10.7158 0 -1.74204)
(10.2374 0 -1.68283)
(9.78996 0 -1.62546)
(9.37057 -1.61035e-20 -1.56998)
(8.97664 -1.45184e-20 -1.5164)
(8.60587 0 -1.46471)
(8.25625 0 -1.41487)
(7.92598 1.04178e-20 -1.36683)
(7.61345 0 -1.32053)
(7.31725 1.15826e-24 -1.27592)
(7.03608 -1.43207e-20 -1.23291)
(6.76878 1.24623e-20 -1.19146)
(6.51432 0 -1.15148)
(6.27175 0 -1.11291)
(6.04023 7.67712e-21 -1.0757)
(5.81896 0 -1.03976)
(5.60724 0 -1.00505)
(5.40442 -3.92326e-21 -0.971502)
(5.20992 5.73082e-21 -0.939065)
(5.02317 0 -0.907676)
(4.84369 2.00455e-21 -0.877294)
(4.67099 0 -0.847857)
(4.50468 1.12104e-21 -0.819333)
(4.34431 2.48314e-21 -0.791658)
(4.18958 0 -0.764811)
(4.04007 4.83397e-21 -0.738724)
(3.89555 -5.87066e-21 -0.713391)
(3.75561 -2.71394e-20 -0.688735)
(3.62012 1.52434e-20 -0.664767)
(3.48863 -1.67035e-20 -0.641398)
(3.36114 2.49435e-23 -0.618659)
(3.23712 0 -0.596446)
(3.11671 2.02721e-20 -0.574815)
(2.9993 2.118e-20 -0.553636)
(2.88517 -2.19488e-20 -0.533001)
(2.7736 2.26249e-20 -0.512747)
(2.66505 4.64319e-20 -0.493008)
(2.55863 4.73787e-20 -0.47358)
(2.45504 -4.81184e-20 -0.454648)
(2.35316 4.87484e-20 -0.435954)
(2.254 0 -0.417749)
(2.15612 0 -0.399707)
(2.06092 4.9645e-20 -0.382161)
(1.96656 0 -0.364699)
(1.87493 0 -0.347754)
(1.7837 -9.89392e-20 -0.330808)
(1.69531 0 -0.314417)
(1.60686 -9.76779e-20 -0.297936)
(1.52147 -1.93576e-19 -0.282065)
(1.43554 0 -0.26601)
(1.35299 -9.45959e-20 -0.250638)
(1.26939 0 -0.234984)
(1.1896 0 -0.220106)
(1.10824 -1.80647e-19 -0.204843)
(1.03122 1.77491e-19 -0.190469)
(0.952113 3.95645e-23 -0.175607)
(0.877981 0 -0.161765)
(0.801224 0 -0.147331)
(0.730186 0 -0.134064)
(0.655968 -1.59055e-19 -0.1201)
(0.588316 1.55081e-19 -0.107464)
(0.516888 0 -0.0940243)
(0.452986 5.87481e-19 -0.0820878)
(0.384621 2.85339e-19 -0.0692313)
(0.324895 -5.53812e-19 -0.0580687)
(0.259808 -2.68366e-19 -0.0458436)
(0.204734 -5.19781e-19 -0.0355351)
(0.142927 0 -0.0239439)
(0.0929438 0 -0.0145592)
(0.034061 2.34475e-19 -0.00354527)
(-0.010034 4.52179e-19 0.0047535)
(-0.0663247 -4.3565e-19 0.0152332)
(-0.10337 0 0.022298)
(-0.160026 0 0.0329421)
(-0.192736 3.87223e-19 0.0394094)
(-0.256148 3.71755e-19 0.0513959)
(-0.286159 0 0.0575783)
(-0.36282 -3.41874e-19 0.0717876)
(-0.380011 3.27475e-19 0.0757165)
(-0.477105 0 0.0933426)
(-0.46181 0 0.0897641)
(-0.536139 0 0.104527)
(-0.562123 0 0.116573)
(-0.861057 0 0.161458)
(-0.375426 -5.20867e-19 0.052141)
(-0.274864 0 0.0623526)
(-0.869739 0 0.215997)
(-2.04726 0 0.419586)
(-1.70538 8.6949e-19 0.30216)
(-1.00593 9.01785e-19 0.139106)
(0.284899 0 -0.0987641)
(0.663227 -8.5999e-19 -0.151059)
(1.18266 0 -0.233609)
(0.928198 -7.55881e-19 -0.175184)
(1.09875 0 -0.205863)
(0.762917 -6.62188e-19 -0.151637)
(1.41552 0 -0.285726)
(32.5728 -5.00735e-21 1.47383)
(33.1567 -6.21064e-21 1.61465)
(33.6841 7.37073e-21 1.42475)
(33.9109 8.30409e-21 0.96481)
(33.7204 0 0.373823)
(33.1242 -9.95075e-21 -0.24126)
(32.1956 0 -0.814659)
(31.0255 1.74986e-20 -1.30938)
(29.7023 1.6737e-20 -1.71)
(28.3022 3.22921e-20 -2.01695)
(26.8846 -1.48656e-20 -2.23989)
(25.4915 1.38786e-20 -2.3923)
(24.1502 0 -2.48808)
(22.8761 0 -2.53983)
(21.6766 1.12133e-20 -2.55817)
(20.5536 -1.14764e-22 -2.5516)
(19.5053 1.76457e-22 -2.52678)
(18.5284 1.36269e-22 -2.48877)
(17.6182 0 -2.44141)
(16.7701 0 -2.38757)
(15.979 0 -2.3294)
(15.2403 2.44682e-20 -2.26852)
(14.5496 1.11427e-20 -2.20613)
(13.9029 0 -2.14311)
(13.2963 0 -2.08012)
(12.7265 1.67359e-20 -2.01766)
(12.1904 0 -1.95606)
(11.6852 0 -1.89559)
(11.2085 0 -1.83642)
(10.758 0 -1.77867)
(10.3316 -6.66426e-24 -1.72241)
(9.92738 0 -1.6677)
(9.54377 -1.84078e-24 -1.61454)
(9.17921 1.34994e-20 -1.56294)
(8.8323 2.22417e-24 -1.51287)
(8.50179 0 -1.46432)
(8.18652 0 -1.41724)
(7.88544 0 -1.37161)
(7.59758 0 -1.32736)
(7.32207 0 -1.28447)
(7.05808 0 -1.24288)
(6.80489 0 -1.20255)
(6.56176 -3.60464e-21 -1.16341)
(6.32811 -1.92417e-21 -1.12544)
(6.1033 0 -1.08857)
(5.88684 1.02232e-21 -1.05277)
(5.67814 0 -1.01797)
(5.47683 0 -0.984164)
(5.28235 -9.09099e-21 -0.951263)
(5.09443 0 -0.919271)
(4.91251 1.27656e-20 -0.888096)
(4.73645 0 -0.857758)
(4.56565 3.14308e-20 -0.828149)
(4.40009 2.41425e-23 -0.799315)
(4.23913 0 -0.771124)
(4.0829 0 -0.743653)
(3.93064 0 -0.71674)
(3.7827 4.1297e-20 -0.690503)
(3.63814 -4.25667e-20 -0.664738)
(3.49756 -4.36255e-20 -0.639618)
(3.3598 -4.4516e-20 -0.614883)
(3.22577 9.05117e-20 -0.590772)
(3.09402 4.58028e-20 -0.566957)
(2.96583 0 -0.54376)
(2.83937 0 -0.520764)
(2.7164 -2.39489e-23 -0.498397)
(2.5946 0 -0.476131)
(2.47633 0 -0.454523)
(2.35865 -9.29361e-20 -0.43291)
(2.24466 0 -0.412002)
(2.13065 0 -0.390977)
(2.02058 1.81852e-19 -0.370728)
(1.90988 -8.99191e-20 -0.350239)
(1.80352 0 -0.330622)
(1.69587 0 -0.31064)
(1.59308 0 -0.291648)
(1.48834 1.69655e-19 -0.272158)
(1.38914 0 -0.253804)
(1.28729 3.26734e-19 -0.234818)
(1.19179 -1.60021e-19 -0.217137)
(1.09295 0 -0.198688)
(1.00141 0 -0.181733)
(0.9058 1.49255e-19 -0.163875)
(0.818585 -2.71756e-23 -0.147718)
(0.726511 1.41607e-19 -0.13052)
(0.64409 -2.75504e-19 -0.115249)
(0.555902 2.67525e-19 -0.098787)
(0.478834 2.59644e-19 -0.0844997)
(0.394816 2.51619e-19 -0.068838)
(0.32373 3.37144e-23 -0.0556379)
(0.243913 0 -0.0407859)
(0.179413 -2.2759e-19 -0.0287673)
(0.103409 0 -0.0146704)
(0.0465332 0 -0.00404432)
(-0.0261007 4.08123e-19 0.00936119)
(-0.0739971 0 0.0184561)
(-0.146977 0 0.0320723)
(-0.188896 0 0.0403834)
(-0.269691 -3.48079e-19 0.0555623)
(-0.306955 0 0.0633337)
(-0.403018 -3.19964e-19 0.0809395)
(-0.422921 0 0.0857078)
(-0.543021 0 0.107107)
(-0.5206 0 0.101913)
(-0.619418 0 0.12176)
(-0.645258 0 0.136995)
(-0.986433 -4.93403e-19 0.182772)
(-0.404164 -4.8702e-19 0.0488547)
(-0.356153 4.64142e-19 0.08501)
(-1.0514 0 0.275492)
(-2.37017 0 0.491934)
(-1.84608 -1.62534e-18 0.313733)
(-1.03324 0 0.116687)
(0.486289 8.33213e-19 -0.159456)
(0.898282 0 -0.207495)
(1.50712 7.56823e-19 -0.298651)
(1.19102 7.06359e-19 -0.223943)
(1.41707 0 -0.264503)
(1.0221 -6.18643e-19 -0.204665)
(1.82665 0 -0.37224)
(32.6284 4.71556e-21 1.02137)
(33.0399 1.14535e-20 1.10941)
(33.4865 -6.94283e-21 1.02734)
(33.8523 -7.80039e-22 0.764852)
(34.0267 7.52354e-21 0.375375)
(33.9538 0 -0.0791637)
(33.6255 0 -0.549664)
(33.062 -1.64775e-20 -1.0004)
(32.2987 -3.06177e-20 -1.40778)
(31.3778 -7.08629e-22 -1.75876)
(30.3429 1.39968e-20 -2.04884)
(29.2345 -1.30673e-20 -2.27937)
(28.0873 1.18241e-20 -2.45515)
(26.9296 0 -2.58277)
(25.783 0 -2.66938)
(24.6628 -9.61456e-21 -2.72198)
(23.5796 3.5203e-20 -2.74695)
(22.5398 3.24181e-20 -2.74984)
(21.547 0 -2.73535)
(20.6024 0 -2.70737)
(19.7059 0 -2.66906)
(18.8564 -6.76115e-23 -2.62295)
(18.0521 -2.09315e-20 -2.57107)
(17.2908 9.51605e-21 -2.51504)
(16.5704 1.73111e-20 -2.45611)
(15.8883 -3.1467e-20 -2.3953)
(15.2422 1.42167e-20 -2.33338)
(14.6299 1.28292e-20 -2.27097)
(14.0492 1.15394e-20 -2.20855)
(13.4979 0 -2.14649)
(12.9742 -9.2407e-21 -2.08508)
(12.4761 8.19605e-21 -2.02453)
(12.0021 -7.2441e-21 -1.965)
(11.5505 -1.2702e-20 -1.90661)
(11.1198 -2.21192e-20 -1.84944)
(10.7087 0 -1.79356)
(10.316 0 -1.73898)
(9.94036 -6.82953e-21 -1.68574)
(9.58083 0 -1.63384)
(9.23638 4.52271e-21 -1.58326)
(8.90605 3.50328e-21 -1.53399)
(8.589 0 -1.48602)
(8.28439 6.79958e-21 -1.4393)
(7.99151 1.81077e-21 -1.39381)
(7.7096 0 -1.34952)
(7.43809 -9.61962e-22 -1.30639)
(7.17627 -2.15524e-21 -1.26437)
(6.92368 0 -1.22345)
(6.67966 8.52427e-21 -1.18354)
(6.44386 -5.16043e-21 -1.14467)
(6.21561 -1.19555e-20 -1.10673)
(5.99473 0 -1.06975)
(5.78048 -2.43602e-23 -1.03361)
(5.57286 3.18651e-20 -0.998381)
(5.37104 0 -0.963892)
(5.17521 0 -0.930254)
(4.98441 -1.86874e-20 -0.897267)
(4.79907 -1.94042e-20 -0.865086)
(4.61805 3.99819e-20 -0.833458)
(4.44205 4.1009e-20 -0.802604)
(4.26967 4.18424e-20 -0.772203)
(4.10199 -4.25197e-20 -0.742557)
(3.93724 -8.60599e-20 -0.713258)
(3.77699 0 -0.684711)
(3.61897 0 -0.656398)
(3.46536 -8.76573e-20 -0.628854)
(3.31329 0 -0.601423)
(3.16565 0 -0.574798)
(3.01882 8.7287e-20 -0.548156)
(2.8766 0 -0.522384)
(2.73443 -8.6109e-20 -0.496454)
(2.59718 -3.20326e-23 -0.471483)
(2.4592 8.44169e-20 -0.446205)
(2.32662 0 -0.422004)
(2.19248 0 -0.397339)
(2.06439 0 -0.373899)
(1.93389 1.59113e-19 -0.349832)
(1.81026 0 -0.327169)
(1.68336 -1.53246e-19 -0.303711)
(1.56432 3.00179e-19 -0.281868)
(1.44113 0 -0.25906)
(1.32699 0 -0.238102)
(1.20776 0 -0.216009)
(1.09895 -2.6938e-23 -0.196026)
(0.98406 -1.32753e-19 -0.174733)
(0.881169 -2.58156e-19 -0.155835)
(0.77104 -2.50735e-19 -0.135439)
(0.674779 2.43242e-19 -0.117748)
(0.569776 0 -0.0983331)
(0.480953 2.28216e-19 -0.0819798)
(0.381152 0 -0.0635657)
(0.30057 2.13176e-19 -0.0486735)
(0.205575 0 -0.0312136)
(0.134544 0 -0.0180482)
(0.0437911 0 -0.00145592)
(-0.0161393 -3.67565e-19 0.00987018)
(-0.107095 -3.53419e-19 0.0267069)
(-0.159032 0 0.0370241)
(-0.258573 3.25701e-19 0.055585)
(-0.303281 -3.12127e-19 0.0650176)
(-0.419655 2.99382e-19 0.0860646)
(-0.441797 -2.86677e-19 0.0916551)
(-0.585377 0 0.116682)
(-0.55471 0 0.109662)
(-0.680533 0 0.135163)
(-0.701493 0 0.153141)
(-1.07866 4.61376e-19 0.196696)
(-0.409546 6.63218e-23 0.0400442)
(-0.433125 -8.67928e-19 0.109423)
(-1.20159 0 0.333586)
(-2.61537 0 0.549205)
(-1.88081 7.59363e-19 0.299686)
(-0.978907 0 0.0725401)
(0.742903 -7.78642e-19 -0.235281)
(1.17318 0 -0.273584)
(1.86133 -1.41429e-18 -0.369682)
(1.48581 0 -0.278446)
(1.77266 0 -0.329925)
(1.32434 5.7791e-19 -0.267071)
(2.27714 0 -0.468332)
(32.6539 0 0.667849)
(32.9557 -5.27192e-21 0.711971)
(33.293 0 0.663243)
(33.6239 -6.62523e-21 0.500899)
(33.8853 -1.35088e-20 0.239761)
(34.0266 0 -0.0884446)
(34.0192 6.74122e-21 -0.452303)
(33.8517 0 -0.825719)
(33.5247 9.00038e-22 -1.1885)
(33.0478 -2.5973e-20 -1.52619)
(32.4369 0 -1.82947)
(31.7123 0 -2.09344)
(30.896 -1.11212e-20 -2.31652)
(30.0105 0 -2.49943)
(29.0767 0 -2.64446)
(28.1135 0 -2.75486)
(27.137 -1.64454e-20 -2.8344)
(26.1605 -1.516e-20 -2.88705)
(25.1946 -1.3766e-20 -2.91666)
(24.2474 0 -2.92685)
(23.3245 0 -2.92091)
(22.4301 -1.07493e-20 -2.90175)
(21.5667 9.81847e-21 -2.87186)
(20.7357 -8.95011e-21 -2.83338)
(19.9377 -1.62815e-20 -2.78814)
(19.1727 2.94781e-20 -2.73762)
(18.4401 -5.47356e-23 -2.68308)
(17.7391 -1.20658e-20 -2.62556)
(17.0687 -1.08526e-20 -2.5659)
(16.4276 0 -2.5048)
(15.8146 0 -2.44282)
(15.2285 -7.70783e-21 -2.38043)
(14.6678 0 -2.31799)
(14.1312 1.19449e-20 -2.25581)
(13.6177 1.03986e-20 -2.19411)
(13.1258 -8.96204e-21 -2.13309)
(12.6544 0 -2.0729)
(12.2025 6.42165e-21 -2.01365)
(11.7689 5.29493e-21 -1.95541)
(11.3526 3.35593e-24 -1.89826)
(10.9527 -6.59185e-21 -1.84224)
(10.5682 0 -1.78737)
(10.1984 -3.20311e-21 -1.73366)
(9.84238 0 -1.68114)
(9.49936 0 -1.62977)
(9.16871 0 -1.57957)
(8.84962 1.33452e-23 -1.53049)
(8.5416 0 -1.48255)
(8.24386 -3.99897e-21 -1.43567)
(7.95606 9.68643e-21 -1.38989)
(7.67738 1.12347e-20 -1.3451)
(7.40763 0 -1.30136)
(7.14594 -1.38541e-20 -1.25853)
(6.89232 -2.98945e-20 -1.21671)
(6.64579 0 -1.1757)
(6.40657 0 -1.13565)
(6.17351 1.7554e-20 -1.09632)
(5.94715 1.81898e-20 -1.05792)
(5.72608 -1.87674e-20 -1.02013)
(5.5112 -3.84485e-20 -0.983234)
(5.30076 0 -0.946846)
(5.09612 0 -0.911341)
(4.8951 2.79325e-23 -0.876221)
(4.69962 -4.07279e-20 -0.841988)
(4.50692 0 -0.808009)
(4.31963 4.11302e-20 -0.774943)
(4.13427 0 -0.74199)
(3.95435 0 -0.710001)
(3.77547 0 -0.67797)
(3.60224 0 -0.646982)
(3.42911 3.39017e-23 -0.615784)
(3.262 -3.17156e-23 -0.58574)
(3.09403 -7.91319e-20 -0.555307)
(2.93264 0 -0.526172)
(2.76938 -7.70456e-20 -0.496457)
(2.61346 0 -0.468222)
(2.45464 -1.492e-19 -0.439207)
(2.30414 1.46469e-19 -0.411893)
(2.14967 -1.43593e-19 -0.383593)
(2.00472 -1.40678e-19 -0.357249)
(1.85471 0 -0.329712)
(1.71565 1.34368e-19 -0.304418)
(1.57037 0 -0.277722)
(1.43773 -1.27781e-19 -0.253587)
(1.29762 -1.24329e-19 -0.227836)
(1.17211 2.41842e-19 -0.204994)
(1.03768 0 -0.180308)
(0.92018 -4.55602e-19 -0.15891)
(0.791898 0 -0.135396)
(0.683419 2.13637e-19 -0.115604)
(0.561424 0 -0.0932973)
(0.463014 1.99519e-19 -0.0752698)
(0.346925 0 -0.0541391)
(0.260199 3.71168e-19 -0.0381975)
(0.149331 -3.57515e-19 -0.0181364)
(0.0760585 3.43967e-19 -0.00436407)
(-0.0346923 3.30695e-19 0.0159638)
(-0.0975172 0 0.0284474)
(-0.217273 -6.09365e-19 0.0505782)
(-0.269613 5.8391e-19 0.0617348)
(-0.407257 0 0.0862543)
(-0.431144 2.68112e-19 0.0926434)
(-0.598673 0 0.121127)
(-0.558733 0 0.112155)
(-0.713656 -4.73806e-19 0.143722)
(-0.724169 0 0.163721)
(-1.13278 0 0.202495)
(-0.388071 4.25583e-19 0.0254087)
(-0.496467 8.11354e-19 0.133968)
(-1.30486 3.68143e-19 0.386804)
(-2.76909 0 0.587791)
(-1.80316 0 0.258741)
(-0.837875 0 0.00597627)
(1.05745 0 -0.32663)
(1.49339 7.01493e-19 -0.350213)
(2.24999 6.60605e-19 -0.447502)
(1.81933 0 -0.340018)
(2.17067 0 -0.403172)
(1.67528 0 -0.339989)
(2.7688 0 -0.574487)
(32.6537 4.22709e-21 0.379227)
(32.8861 0 0.395907)
(33.1421 4.94413e-21 0.355961)
(33.4072 0 0.243341)
(33.6506 6.0439e-21 0.0585782)
(33.8408 0 -0.183638)
(33.9549 -6.33589e-21 -0.464172)
(33.9779 1.1626e-20 -0.765086)
(33.9006 2.37343e-20 -1.07122)
(33.7185 7.2789e-22 -1.37058)
(33.431 0 -1.65417)
(33.0415 0 -1.91578)
(32.5567 0 -2.15155)
(31.9858 0 -2.3594)
(31.3395 0 -2.53859)
(30.63 0 -2.68938)
(29.8697 1.48228e-20 -2.8128)
(29.0708 -1.37435e-20 -2.91042)
(28.2447 1.29346e-20 -2.98422)
(27.402 0 -3.03642)
(26.5518 0 -3.06932)
(25.7019 9.89902e-21 -3.08527)
(24.8588 9.0655e-21 -3.08648)
(24.0277 8.28235e-21 -3.07508)
(23.2125 0 -3.05297)
(22.4162 -1.38154e-20 -3.02191)
(21.6411 -2.49478e-20 -2.98342)
(20.8887 1.12372e-20 -2.93885)
(20.1598 0 -2.88937)
(19.455 0 -2.83598)
(18.7743 0 -2.77954)
(18.1176 7.20615e-21 -2.72078)
(17.4845 0 -2.66031)
(16.8744 0 -2.59867)
(16.2869 9.7419e-21 -2.53628)
(15.721 8.419e-21 -2.47351)
(15.1761 0 -2.41066)
(14.6514 6.02744e-21 -2.34798)
(14.146 -9.94531e-21 -2.28566)
(13.6591 -3.99734e-21 -2.22389)
(13.19 3.09785e-21 -2.16278)
(12.7377 0 -2.10246)
(12.3016 0 -2.04299)
(11.8809 0 -1.98446)
(11.4747 3.55893e-22 -1.92687)
(11.0826 0 -1.87031)
(10.7036 1.88975e-21 -1.81475)
(10.3372 2.84915e-21 -1.76025)
(9.98271 0 -1.70675)
(9.6397 -4.54137e-21 -1.65432)
(9.30727 0 -1.60287)
(8.98527 0 -1.55248)
(8.6727 -1.29622e-20 -1.503)
(8.36961 2.11019e-23 -1.45458)
(8.07486 1.49191e-20 -1.40699)
(7.78877 0 -1.36044)
(7.50997 0 -1.31463)
(7.23914 -1.7071e-20 -1.26984)
(6.97459 0 -1.22569)
(6.71743 3.60789e-20 -1.18254)
(6.46558 0 -1.13992)
(6.22068 0 -1.09829)
(5.98011 7.57032e-20 -1.05707)
(5.74619 7.63885e-20 -1.01687)
(5.51561 3.84074e-20 -0.976915)
(5.29155 0 -0.93802)
(5.0698 0 -0.899218)
(4.85461 3.85e-20 -0.861541)
(4.64066 7.67051e-20 -0.823777)
(4.43351 0 -0.78724)
(4.22649 7.57187e-20 -0.750418)
(4.0267 -7.50171e-20 -0.71496)
(3.82587 7.41809e-20 -0.679005)
(3.63293 -7.32279e-20 -0.644591)
(3.43774 7.22126e-20 -0.609452)
(3.25133 0 -0.576074)
(3.06142 0 -0.541732)