/*--------------------------------*- C++ -*----------------------------------*\
| =========                 |                                                 |
| \\      /  F ield         | OpenFOAM: The Open Source CFD Toolbox           |
|  \\    /   O peration     | Version:  2412                                  |
|   \\  /    A nd           | Website:  www.openfoam.com                      |
|    \\/     M anipulation  |                                                 |
\*---------------------------------------------------------------------------*/
FoamFile
{
    version     2.0;
    format      ascii;
    arch        "LSB;label=32;scalar=64";
    class       surfaceScalarField;
    location    "0.705";
    object      phi;
}
// * * * * * * * * * * * * * * * * * * * * * * * * * * * * * * * * * * * * * //

dimensions      [0 3 -1 0 0 0 0];

oriented        oriented;

internalField   nonuniform List<scalar> 
24930
(
0.0179581
0.0127462
-0.0307098
0.0105995
0.00735859
0.00695144
0.00364805
0.00517644
0.00177501
0.00420483
0.000971609
0.00358216
0.000622676
0.00313638
0.000445778
0.00279695
0.000339432
0.00252782
0.000269129
0.00230794
0.000219881
0.00212416
0.000183783
0.00196775
0.000156411
0.00183266
0.000135088
0.00171455
0.000118109
0.00161021
0.000104339
0.00151722
9.29972e-05
0.00143369
8.35271e-05
0.00135816
7.55267e-05
0.00128947
6.86977e-05
0.00122665
6.28151e-05
0.00116894
5.77062e-05
0.00111571
5.32367e-05
0.00106641
4.93008e-05
0.00102059
4.58142e-05
0.000977884
4.27087e-05
0.000937954
3.99293e-05
0.000900524
3.74303e-05
0.000865349
3.51744e-05
0.000832219
3.31303e-05
0.000800947
3.12715e-05
0.000771371
2.95761e-05
0.000743346
2.80251e-05
0.000716744
2.66024e-05
0.000691449
2.52942e-05
0.000667361
2.40887e-05
0.000644385
2.29756e-05
0.00062244
2.19457e-05
0.000601448
2.09915e-05
0.000581343
2.01058e-05
0.00056206
1.9283e-05
0.000543543
1.85172e-05
0.000525739
1.78045e-05
0.0005086
1.71397e-05
0.000492079
1.65204e-05
0.000476138
1.59418e-05
0.000460735
1.54028e-05
0.000445837
1.48986e-05
0.000431408
1.44294e-05
0.000417418
1.39901e-05
0.000403836
1.35825e-05
0.000390636
1.32005e-05
0.000377788
1.28479e-05
0.000365271
1.25169e-05
0.000353058
1.2214e-05
0.000341129
1.19291e-05
0.000329457
1.16716e-05
0.000318029
1.14285e-05
0.000306816
1.12131e-05
0.000295808
1.10083e-05
0.000284976
1.08321e-05
0.000274313
1.06624e-05
0.00026379
1.05233e-05
0.000253405
1.03857e-05
0.000243123
1.02816e-05
0.000232949
1.01734e-05
0.000222847
1.01027e-05
0.000212826
1.00209e-05
0.000202844
9.98208e-06
0.00019292
9.92333e-06
0.000183006
9.91434e-06
0.000173131
9.87486e-06
0.000163238
9.89304e-06
0.00015337
9.86812e-06
0.00014346
9.90987e-06
0.000133566
9.89397e-06
0.000123612
9.95418e-06
0.000113671
9.94036e-06
0.000103659
1.00124e-05
9.36658e-05
9.99311e-06
8.35967e-05
1.0069e-05
7.35605e-05
1.00361e-05
6.34534e-05
1.0107e-05
5.34011e-05
1.00523e-05
4.3291e-05
1.01102e-05
3.32653e-05
1.00258e-05
2.31986e-05
1.00668e-05
1.32537e-05
9.9451e-06
3.2874e-06
9.96638e-06
-6.52538e-06
9.81284e-06
-1.63733e-05
9.84796e-06
-2.59762e-05
9.60276e-06
-3.57038e-05
9.72758e-06
-4.50604e-05
9.35637e-06
-5.47441e-05
9.68337e-06
-6.38147e-05
9.07032e-06
-7.36735e-05
9.85865e-06
-8.24139e-05
8.74083e-06
-9.28544e-05
1.04416e-05
-0.000101812
8.95887e-06
-0.000112348
1.05363e-05
-0.000121703
9.35402e-06
-0.00014042
1.87169e-05
-0.000138321
-2.09585e-06
-0.000151216
1.28918e-05
-0.000229764
7.85492e-05
-0.000137032
-9.27231e-05
-0.000163392
2.63469e-05
-0.000379436
0.000216046
-0.000132649
-0.000246772
-0.000163399
3.07032e-05
-0.000819141
0.000655736
-0.00067347
-0.000145626
6.14897e-05
-0.000734957
-0.000216677
0.000278146
-0.000999964
0.000783292
-0.000980522
-1.94163e-05
-0.000446358
-0.000534164
0.000102396
-0.000548757
0.000479595
-0.000377198
-0.000112925
0.0336618
0.0163082
-0.0372238
0.0277305
0.0132899
0.0221828
0.00919578
0.0179123
0.00604547
0.0148687
0.00401523
0.0127098
0.00278152
0.0111238
0.00203178
0.00990754
0.00155572
0.00894087
0.0012358
0.00815094
0.00100981
0.00749103
0.000843689
0.00692988
0.000717563
0.00644572
0.000619249
0.00602289
0.000540941
0.0056498
0.000477431
0.00531768
0.00042512
0.00501975
0.000381454
0.0047507
0.000344578
0.00450629
0.000313114
0.00428308
0.000286024
0.00407828
0.000262509
0.00388956
0.000241949
0.00371501
0.000223853
0.00355299
0.000207832
0.00340213
0.000193571
0.00326125
0.000180814
0.00312932
0.000169352
0.00300549
0.000159009
0.00288898
0.000149642
0.00277912
0.00014113
0.00267532
0.000133369
0.00257708
0.000126273
0.00248391
0.000119767
0.00239542
0.000113787
0.00231123
0.000108279
0.00223101
0.000103195
0.00215446
9.84924e-05
0.00208132
9.41369e-05
0.00201133
9.00955e-05
0.00194427
8.63416e-05
0.00187994
8.28493e-05
0.00181815
7.95986e-05
0.00175872
7.65682e-05
0.0017015
7.3744e-05
0.00164633
7.1107e-05
0.00159309
6.86485e-05
0.00154164
6.63507e-05
0.00149186
6.42096e-05
0.00144364
6.22074e-05
0.00139688
6.03454e-05
0.00135147
5.86039e-05
0.00130733
5.69901e-05
0.00126437
5.54811e-05
0.00122249
5.40908e-05
0.00118163
5.27911e-05
0.0011417
5.16045e-05
0.00110263
5.0495e-05
0.00106435
4.94959e-05
0.0010268
4.85608e-05
0.000989894
4.77361e-05
0.000953595
4.69616e-05
0.000917818
4.63001e-05
0.00088253
4.56735e-05
0.000847646
4.51656e-05
0.000813144
4.46751e-05
0.000778934
4.43125e-05
0.000745009
4.39462e-05
0.000711271
4.37201e-05
0.000677729
4.3465e-05
0.000644278
4.33657e-05
0.000610946
4.32061e-05
0.000577619
4.32208e-05
0.000544349
4.31378e-05
0.000511009
4.32499e-05
0.000477683
4.32202e-05
0.00044423
4.34071e-05
0.000410768
4.34015e-05
0.000377147
4.36336e-05
0.00034352
4.36196e-05
0.000309726
4.38625e-05
0.000275958
4.38046e-05
0.000242045
4.40193e-05
0.000208216
4.38813e-05
0.000174296
4.40306e-05
0.000140541
4.37804e-05
0.000106769
4.38394e-05
7.32626e-05
4.34519e-05
3.98247e-05
4.34046e-05
6.78031e-06
4.28574e-05
-2.62107e-05
4.28391e-05
-5.87141e-05
4.21061e-05
-9.11715e-05
4.21848e-05
-0.000122935
4.11191e-05
-0.000155026
4.17745e-05
-0.000186006
4.00499e-05
-0.000218333
4.21854e-05
-0.000248431
3.88392e-05
-0.000282341
4.43522e-05
-0.000313016
3.96347e-05
-0.000346975
4.44966e-05
-0.00037968
4.2062e-05
-0.00043871
7.77466e-05
-0.00042847
-1.23355e-05
-0.000492699
7.71256e-05
-0.000700877
0.000286723
-0.000421662
-0.000371939
-0.000565873
0.00017057
-0.00114351
0.000793673
-0.000405816
-0.000984467
-0.000638583
0.000263508
-0.00252145
0.00253861
-0.0019108
-0.000756305
0.00016505
-0.0028108
-0.000843746
0.00128695
-0.0030777
0.00301724
-0.00286886
-0.000228256
-0.00119501
-0.00220801
0.000495432
-0.0022392
0.0016035
-0.00148526
-0.000467339
0.0414287
0.0160029
-0.0411233
0.0391415
0.0155771
0.0352157
0.0131216
0.0309336
0.0103275
0.0270229
0.00792597
0.0237373
0.00606709
0.0210657
0.00470347
0.018899
0.00372234
0.017123
0.00301185
0.015645
0.00248777
0.0143963
0.00209242
0.0133266
0.00178732
0.0123989
0.00154689
0.0115859
0.00135392
0.0108668
0.00119652
0.0102256
0.00106633
0.00964978
0.000957304
0.00912936
0.000865
0.00865638
0.000786094
0.00822435
0.000718053
0.00782794
0.000658923
0.00746271
0.000607176
0.00712496
0.000561601
0.00681157
0.000521231
0.00651986
0.00048528
0.00624756
0.000453113
0.00599271
0.000424203
0.0057536
0.000398115
0.00552876
0.000374486
0.00531687
0.000353012
0.00511681
0.000333434
0.00492755
0.000315533
0.00474819
0.000299121
0.00457794
0.000284039
0.00441607
0.000270146
0.00426195
0.000257324
0.00411497
0.000245467
0.00397463
0.000234484
0.00384043
0.000224294
0.00371194
0.000214829
0.00358877
0.000206025
0.00347054
0.000197829
0.00335692
0.000190189
0.00324759
0.000183068
0.00314228
0.00017642
0.00304071
0.000170219
0.00294264
0.000164425
0.00284782
0.000159022
0.00275606
0.000153972
0.00266714
0.00014927
0.00258087
0.000144876
0.00249706
0.000140795
0.00241556
0.000136985
0.00233619
0.000133463
0.0022588
0.000130179
0.00218324
0.000127165
0.00210938
0.000124358
0.00203706
0.000121811
0.00196618
0.000119442
0.00189659
0.000117328
0.00182819
0.000115363
0.00176083
0.000113652
0.00169445
0.00011206
0.00162889
0.000110728
0.00156408
0.000109481
0.00149989
0.000108505
0.00143626
0.000107574
0.00137305
0.000106932
0.00131022
0.000106287
0.00124764
0.000105953
0.00118529
0.000105558
0.00112301
0.0001055
0.00106083
0.00010531
0.000998598
0.000105486
0.000936371
0.000105447
0.000873976
0.000105802
0.000811535
0.000105842
0.000748863
0.000106305
0.000686137
0.000106346
0.000623166
0.000106833
0.000560182
0.000106788
0.000496998
0.000107203
0.000433896
0.000106983
0.000370692
0.000107235
0.000307712
0.00010676
0.00024477
0.000106782
0.000182227
0.000105995
0.000119879
0.000105753
5.81177e-05
0.000104619
-3.18895e-06
0.000104146
-6.39957e-05
0.000102913
-0.00012438
0.000102569
-0.000183786
0.000100525
-0.0002433
0.000101288
-0.000301355
9.81041e-05
-0.000360958
0.000101788
-0.000417497
9.53787e-05
-0.000479608
0.000106464
-0.000536891
9.69192e-05
-0.000598885
0.000106491
-0.00066055
0.000103729
-0.000764235
0.000181431
-0.000747861
-2.87072e-05
-0.000880562
0.000209832
-0.00120803
0.000614185
-0.000738677
-0.00084129
-0.00104987
0.000481772
-0.0019602
0.00170399
-0.000716142
-0.00222853
-0.00127468
0.000822063
-0.00435953
0.00562344
-0.00310982
-0.00200603
0.000248087
-0.00616869
-0.00168216
0.0032172
-0.00531002
0.0066451
-0.0047251
-0.00081318
-0.00178301
-0.0051501
0.00113006
-0.00515227
0.00298323
-0.00333843
-0.00107635
0.0458899
0.014703
-0.0445901
0.045974
0.015493
0.0443975
0.0146982
0.041677
0.0130479
0.0384372
0.0111658
0.0351362
0.00936805
0.0320414
0.00779831
0.0292669
0.00649682
0.0268316
0.00544712
0.0247096
0.00460985
0.0228596
0.00394236
0.02124
0.00340698
0.0198134
0.00297342
0.0185489
0.00261846
0.0174208
0.00232464
0.0164083
0.00207884
0.0154944
0.00187117
0.0146653
0.00169413
0.0139094
0.00154193
0.0132174
0.00141009
0.0125812
0.0012951
0.0119943
0.00119415
0.0114508
0.00110501
0.0109462
0.00102589
0.0104762
0.000955301
0.0100372
0.000892047
0.00962631
0.000835128
0.00924071
0.000783711
0.0088781
0.000737099
0.00853641
0.000694705
0.00821381
0.000656029
0.0079087
0.000620646
0.00761963
0.000588193
0.00734531
0.000558356
0.00708459
0.000530863
0.00683644
0.00050548
0.0065999
0.000482001
0.00637414
0.000460249
0.00615837
0.000440064
0.00595189
0.00042131
0.00575405
0.000403862
0.00556427
0.000387616
0.00538199
0.000372471
0.00520671
0.000358349
0.00503796
0.000345165
0.00487532
0.000332862
0.00471838
0.000321366
0.00456676
0.000310639
0.00442012
0.000300614
0.00427812
0.00029127
0.00414046
0.00028254
0.00400683
0.000274423
0.00387697
0.000266846
0.00375061
0.00025983
0.00362749
0.000253291
0.00350738
0.000247274
0.00339007
0.000241678
0.0032753
0.000236576
0.0031629
0.000231845
0.00305264
0.000227591
0.00294434
0.000223658
0.0028378
0.000220193
0.00273286
0.000216997
0.00262932
0.000214271
0.00252704
0.00021176
0.00242582
0.000209728
0.00232555
0.000207845
0.00222602
0.000206463
0.00212715
0.000205153
0.00202874
0.000204368
0.00193073
0.000203562
0.00183292
0.000203313
0.0017353
0.000202927
0.00163765
0.000203134
0.00154003
0.000203066
0.00144221
0.000203621
0.00134432
0.000203738
0.00124612
0.000204503
0.00114782
0.000204652
0.00104918
0.000205468
0.000950487
0.000205482
0.000851525
0.000206165
0.000752639
0.000205869
0.000653633
0.00020624
0.000554914
0.000205479
0.000456298
0.000205399
0.00035823
0.000204064
0.000260524
0.000203458
0.00016365
0.000201494
6.74015e-05
0.000200395
-2.78052e-05
0.000198119
-0.000122342
0.000197106
-0.000215572
0.000193754
-0.000308563
0.000194278
-0.000399656
0.000189197
-0.000492425
0.000194557
-0.000581139
0.000184093
-0.000677267
0.000202593
-0.000766556
0.000186209
-0.00086234
0.000202276
-0.000958883
0.000200276
-0.00111143
0.000333982
-0.00109446
-4.56784e-05
-0.0013087
0.000424072
-0.00174754
0.00105302
-0.00109093
-0.00149789
-0.00161124
0.00100209
-0.00282453
0.00291727
-0.00107417
-0.00397889
-0.00207489
0.00182281
-0.00630374
0.00985228
-0.00425091
-0.00405887
0.000293155
-0.0107127
-0.00272742
0.00623779
-0.00763947
0.0115571
-0.00647273
-0.00197992
-0.0021485
-0.00947434
0.0020581
-0.00935886
0.00466318
-0.0059435
-0.00194695
0.0493557
0.0135086
-0.0481612
0.0503197
0.0145289
0.050339
0.0146789
0.049319
0.014068
0.0474772
0.0130077
0.0451058
0.0117394
0.0424764
0.0104277
0.0397952
0.00917807
0.0371967
0.00804562
0.0347553
0.00705121
0.0325033
0.00619442
0.0304464
0.00546381
0.0285764
0.0048434
0.0268784
0.00431654
0.0253351
0.00386789
0.0239298
0.00348414
0.0226468
0.00315418
0.021472
0.00286888
0.0203932
0.00262077
0.0193995
0.00240382
0.0184815
0.00221309
0.0176311
0.00204457
0.0168411
0.00189494
0.0161055
0.0017615
0.0154188
0.00164198
0.0147764
0.00153451
0.014174
0.00143752
0.013608
0.00134969
0.0130752
0.00126989
0.0125727
0.00119716
0.0120981
0.00113071
0.0116489
0.00106982
0.0112232
0.00101391
0.0108191
0.00096244
0.010435
0.000914968
0.0100694
0.000871101
0.00972087
0.000830492
0.00938828
0.000792841
0.00907046
0.00075788
0.00876639
0.000725378
0.00847513
0.000695123
0.00819581
0.000666938
0.00792763
0.00064065
0.00766986
0.000616124
0.0074218
0.000593219
0.00718283
0.000571832
0.00695236
0.000551842
0.00672982
0.000533177
0.00651471
0.000515727
0.00630653
0.00049945
0.00610483
0.000484239
0.00590918
0.00047008
0.00571916
0.000456863
0.00553439
0.000444604
0.0053545
0.000433181
0.00517913
0.000422644
0.00500796
0.000412852
0.00484064
0.000403894
0.00467689
0.000395596
0.00451638
0.000388098
0.00435886
0.00038118
0.00420401
0.000375039
0.00405161
0.000369399
0.00390136
0.000364528
0.00375304
0.000360074
0.00360638
0.000356394
0.00346119
0.000353036
0.00331718
0.00035047
0.00317422
0.000348111
0.00303202
0.000346571
0.00289048
0.000345099
0.00274931
0.000344479
0.00260848
0.000343757
0.0024677
0.000343923
0.00232698
0.000343778
0.00218606
0.000344547
0.00204504
0.000344758
0.00190364
0.000345899
0.00176208
0.00034621
0.0016201
0.000347454
0.001478
0.00034758
0.00133554
0.000348618
0.00119316
0.000348258
0.00105062
0.000348778
0.000908431
0.000347666
0.000766411
0.00034742
0.000625113
0.000345362
0.000484363
0.000344209
0.000344745
0.000341111
0.000206048
0.000339092
6.88515e-05
0.000335316
-6.72121e-05
0.000333169
-0.000201599
0.000328141
-0.000335284
0.000327963
-0.000466458
0.00032037
-0.000599377
0.000327476
-0.000726994
0.00031171
-0.000863953
0.000339553
-0.000991517
0.000313775
-0.00112782
0.000338577
-0.00126578
0.000338242
-0.00147207
0.000540271
-0.00146176
-5.59851e-05
-0.00176938
0.000731696
-0.00231116
0.0015948
-0.00147716
-0.0023319
-0.00224376
0.00176871
-0.00372508
0.00439857
-0.00148662
-0.00621735
-0.00303515
0.00337136
-0.00830992
0.015127
-0.00531184
-0.00705697
0.000282828
-0.0163074
-0.00395921
0.0104798
-0.00998104
0.017579
-0.00801479
-0.00394619
-0.00221697
-0.0152722
0.00333851
-0.0149143
0.00669137
-0.00929635
-0.00308518
0.0528138
0.0126104
-0.0519156
0.0538423
0.0135003
0.0545266
0.0139946
0.0545966
0.0139979
0.0539998
0.0136045
0.0528053
0.0129338
0.0511424
0.0120906
0.0491573
0.0111632
0.0469844
0.0102185
0.0447343
0.00930137
0.0424889
0.00843978
0.0403044
0.00764838
0.0382151
0.00693265
0.0362396
0.006292
0.0343854
0.00572218
0.0326524
0.00521706
0.0310368
0.00476981
0.0295321
0.00437363
0.0281307
0.00402216
0.0268248
0.00370966
0.0256069
0.00343107
0.0244694
0.00318199
0.0234057
0.00295863
0.0224095
0.00275771
0.0214751
0.00257644
0.0205972
0.0024124
0.0197712
0.00226353
0.0189928
0.00212807
0.0182582
0.00200448
0.0175639
0.00189144
0.0169068
0.00178781
0.0162841
0.00169259
0.015693
0.00160492
0.0151314
0.00152404
0.0145971
0.00144929
0.0140882
0.00138008
0.0136027
0.00131592
0.0131392
0.00125634
0.0126962
0.00120094
0.0122722
0.00114938
0.011866
0.00110133
0.0114764
0.00105651
0.0111024
0.00101468
0.0107429
0.000975616
0.010397
0.000939102
0.0100638
0.000904979
0.00974262
0.000873061
0.00943256
0.000843234
0.00913296
0.000815331
0.00884313
0.000789277
0.00856246
0.000764917
0.00829032
0.000742216
0.00802617
0.000721015
0.00776945
0.000701322
0.00751967
0.000682966
0.00727631
0.000666002
0.00703893
0.000650233
0.00680705
0.00063577
0.00658027
0.000622376
0.00635815
0.000610224
0.0061403
0.000599024
0.00592632
0.000589022
0.00571586
0.000579855
0.00550853
0.000571865
0.00530401
0.000564588
0.00510192
0.000558485
0.004902
0.00055296
0.00470385
0.000548621
0.00450726
0.000544698
0.00431184
0.000541987
0.00411745
0.000539496
0.00392368
0.000538248
0.00373045
0.00053698
0.00353739
0.000536986
0.00334449
0.000536676
0.00315138
0.000537655
0.00295818
0.000537963
0.00276452
0.000539556
0.00257065
0.000540084
0.00237623
0.000541873
0.00218163
0.000542176
0.00198657
0.000543677
0.00179155
0.000543279
0.00159633
0.000544
0.00140152
0.000542472
0.00120694
0.000542003
0.00101328
0.000539027
0.000820364
0.000537122
0.000628941
0.000532534
0.0004388
0.000529234
0.000250691
0.000523424
6.4273e-05
0.000519587
-0.000119938
0.000512352
-0.000302849
0.000510873
-0.000482466
0.000499986
-0.000663763
0.000508774
-0.000838227
0.000486175
-0.00102395
0.000525279
-0.00119712
0.000486947
-0.00138172
0.000523176
-0.00156838
0.000524901
-0.00183394
0.000805834
-0.00183917
-5.07491e-05
-0.00225055
0.00114308
-0.00288703
0.00223127
-0.00189213
-0.00332679
-0.00293542
0.00281202
-0.00464653
0.00610967
-0.00195598
-0.00890791
-0.00413946
0.00555488
-0.0103239
0.0213114
-0.00627184
-0.011109
0.000203435
-0.0227826
-0.00533556
0.0160189
-0.0122251
0.0244684
-0.00924148
-0.00692979
-0.00190988
-0.0226037
0.00503738
-0.0218616
0.00912381
-0.0133828
-0.00449701
0.0565337
0.0119234
-0.0558466
0.0573873
0.0126467
0.0581843
0.0131977
0.0587116
0.0134706
0.0588474
0.0134688
0.0585458
0.0132355
0.0578162
0.0128203
0.0567063
0.012273
0.0552848
0.0116401
0.0536267
0.0109595
0.0518054
0.0102611
0.0498861
0.00956764
0.0479234
0.00889535
0.0459602
0.00825521
0.0440285
0.00765392
0.0421506
0.00709489
0.0403414
0.00657907
0.0386094
0.00610566
0.0369588
0.00567274
0.0353907
0.00527772
0.0339041
0.00491767
0.0324965
0.00458959
0.0311646
0.00429053
0.0299046
0.00401771
0.0287125
0.00376854
0.0275843
0.00354065
0.0265159
0.00333192
0.0255035
0.00314044
0.0245435
0.00296448
0.0236324
0.00280253
0.022767
0.00265323
0.0219442
0.00251537
0.0211613
0.00238787
0.0204155
0.00226978
0.0197045
0.00216026
0.0190261
0.00205855
0.018378
0.00196397
0.0177584
0.00187593
0.0171655
0.00179387
0.0165975
0.00171733
0.016053
0.00164587
0.0155304
0.0015791
0.0150284
0.00151667
0.0145457
0.00145828
0.0140812
0.00140363
0.0136337
0.00135248
0.0132022
0.00130459
0.0127857
0.00125977
0.0123832
0.0012178
0.0119939
0.00117856
0.011617
0.00114184
0.0112516
0.00110757
0.0108971
0.00107554
0.0105527
0.00104575
0.0102177
0.00101795
0.00989148
0.000992215
0.00957343
0.00096828
0.00926293
0.000946273
0.00895942
0.000925885
0.00866232
0.000907327
0.00837113
0.00089022
0.00808527
0.000874873
0.00780431
0.000860816
0.0075277
0.000848475
0.00725503
0.000837257
0.00698578
0.00082774
0.00671958
0.00081916
0.00645591
0.000812286
0.00619448
0.000806128
0.00593477
0.000801698
0.00567655
0.000797718
0.00541931
0.00079549
0.0051629
0.000793386
0.00490683
0.000793058
0.00465106
0.00079245
0.0043951
0.000793611
0.00413906
0.000794001
0.00388249
0.000796126
0.00362564
0.000796933
0.00336811
0.000799409
0.00311031
0.000799974
0.0028519
0.000802083
0.00259349
0.000801695
0.00233478
0.000802701
0.00207655
0.000800705
0.00181858
0.000799976
0.00156174
0.000795869
0.00130586
0.000792997
0.0010519
0.000786502
0.000799626
0.000781505
0.000550037
0.000773013
0.000302624
0.000767
5.84739e-05
0.000756501
-0.000183716
0.000753062
-0.000421735
0.000738005
-0.00066111
0.000748149
-0.000891778
0.000716843
-0.00113552
0.000769025
-0.00136286
0.000714286
-0.00160475
0.000765066
-0.00184814
0.000768299
-0.00217962
0.00113731
-0.00221046
-1.98978e-05
-0.00273448
0.0016671
-0.00345859
0.00295537
-0.00232494
-0.00446044
-0.00366661
0.00415371
-0.00556937
0.0080124
-0.00247738
-0.0119999
-0.00535646
0.00843399
-0.0122841
0.0282391
-0.00711227
-0.0162809
4.93156e-05
-0.0299442
-0.00678844
0.0228567
-0.0142404
0.0319204
-0.0100304
-0.0111399
-0.00113959
-0.0314945
0.00722976
-0.0302309
0.0120271
-0.0181801
-0.00618876
0.0605387
0.0113602
-0.0599755
0.0612233
0.0119621
0.0619382
0.0124827
0.0625607
0.0128481
0.0629934
0.0130361
0.0631722
0.0130566
0.0630617
0.0129308
0.0626514
0.0126833
0.0619516
0.0123399
0.0609869
0.0119242
0.0597917
0.0114563
0.0584055
0.0109538
0.0568696
0.0104313
0.0552239
0.00990091
0.0535052
0.00937258
0.051746
0.00885415
0.0499734
0.00835167
0.0482095
0.00786954
0.0464715
0.00741072
0.0447723
0.00697695
0.0431209
0.00656901
0.0415236
0.00618689
0.0399841
0.00583004
0.0385044
0.00549748
0.0370849
0.00518804
0.0357252
0.00490034
0.0344241
0.004633
0.0331799
0.0043846
0.0319907
0.00415375
0.0308541
0.00393913
0.0297678
0.00373952
0.0287294
0.00355372
0.0277366
0.00338068
0.026787
0.0032194
0.0258783
0.00306896
0.0250083
0.00292852
0.024175
0.00279733
0.0233762
0.00267469
0.0226101
0.00255996
0.0218749
0.00245257
0.0211688
0.00235199
0.0204901
0.00225775
0.0198374
0.0021694
0.0192091
0.00208656
0.0186039
0.00200885
0.0180204
0.00193598
0.0174574
0.0018676
0.0169137
0.0018035
0.0163881
0.00174337
0.0158796
0.00168706
0.0153872
0.00163428
0.0149098
0.00158494
0.0144466
0.00153876
0.0139966
0.00149573
0.013559
0.00145554
0.013133
0.00141826
0.0127177
0.00138354
0.0123124
0.00135155
0.0119164
0.00132189
0.011529
0.00129481
0.0111493
0.00126982
0.0107769
0.00124732
0.010411
0.00122671
0.010051
0.0012085
0.00969627
0.00119196
0.00934621
0.0011778
0.00900031
0.00116506
0.0086579
0.0011547
0.00831857
0.00114546
0.00798166
0.00113861
0.00764684
0.00113254
0.00731345
0.00112888
0.00698128
0.00112556
0.00664967
0.00112466
0.00631855
0.00112357
0.0059873
0.00112487
0.00565599
0.00112531
0.00532405
0.00112806
0.00499176
0.00112922
0.0046586
0.00113257
0.00432506
0.00113352
0.00399071
0.00113643
0.00365626
0.00113614
0.00332139
0.00113757
0.00298701
0.00113509
0.00265289
0.00113409
0.00232012
0.00112864
0.00198852
0.00112459
0.00165931
0.00111571
0.00133226
0.00110856
0.00100867
0.0010966
0.000687926
0.00108775
0.000371596
0.00107283
5.83793e-05
0.00106628
-0.000250031
0.00104642
-0.000558864
0.00105698
-0.0008568
0.00101478
-0.00116934
0.00108157
-0.00146086
0.00100581
-0.00177038
0.00107458
-0.00207948
0.0010774
-0.00248461
0.00154244
-0.00255229
4.77785e-05
-0.00319622
0.00231104
-0.00400308
0.00376222
-0.00275682
-0.00570669
-0.00440832
0.00580523
-0.00646816
0.0100722
-0.00303532
-0.0154327
-0.00663668
0.0120354
-0.0141233
0.0357257
-0.00781329
-0.022591
-0.000134916
-0.0376225
-0.0082207
0.0309425
-0.0158763
0.039576
-0.0102506
-0.0167656
0.000189712
-0.0419348
0.0100011
-0.0400423
0.0154815
-0.0236605
-0.00816734
0.0648226
0.0108756
-0.0643381
0.0653882
0.0113965
0.0659961
0.0118748
0.0665813
0.0122629
0.0670811
0.0125363
0.0674471
0.0126907
0.0676438
0.012734
0.0676475
0.0126797
0.0674448
0.0125425
0.0670318
0.0123372
0.066412
0.0120761
0.065596
0.0117698
0.0645996
0.0114277
0.0634426
0.0110579
0.0621477
0.0106675
0.0607388
0.010263
0.0592403
0.0098502
0.0576755
0.00943434
0.0560661
0.00902012
0.0544315
0.00861156
0.0527885
0.008212
0.0511512
0.00782414
0.0495313
0.00744999
0.0479378
0.007091
0.0463777
0.00674806
0.0448564
0.00642165
0.0433776
0.00611188
0.0419435
0.0058186
0.0405558
0.00554144
0.0392151
0.00527989
0.0379213
0.00503331
0.036674
0.00480104
0.0354723
0.00458237
0.0343151
0.00437656
0.0332012
0.00418291
0.032129
0.00400071
0.031097
0.00382928
0.0301037
0.00366799
0.0291475
0.00351622
0.0282267
0.0033734
0.0273397
0.00323898
0.0264849
0.00311248
0.0256609
0.0029934
0.0248662
0.00288134
0.0240992
0.00277585
0.0233585
0.00267662
0.0226429
0.00258323
0.0219509
0.00249545
0.0212814
0.00241289
0.0206331
0.00233539
0.0200048
0.00226258
0.0193954
0.00219437
0.0188037
0.00213041
0.0182288
0.00207067
0.0176695
0.00201478
0.017125
0.00196282
0.0165942
0.00191436
0.0160761
0.00186959
0.01557
0.00182802
0.0150748
0.00178996
0.0145898
0.00175481
0.0141141
0.00172303
0.013647
0.00169389
0.0131874
0.00166803
0.0127349
0.00164453
0.0122884
0.00162426
0.0118474
0.00160602
0.0114111
0.00159101
0.0109789
0.00157767
0.01055
0.00156756
0.0101238
0.00155866
0.00969972
0.00155301
0.00927727
0.00154801
0.00885568
0.00154625
0.0084348
0.00154445
0.00801384
0.00154583
0.00759286
0.00154629
0.00717112
0.0015498
0.00674891
0.00155143
0.00632559
0.00155589
0.00590171
0.0015574
0.00547674
0.00156141
0.00505151
0.00156137
0.00462563
0.00156345
0.0042002
0.00156051
0.00377498
0.00155932
0.00335128
0.00155234
0.00292896
0.00154691
0.00250953
0.00153514
0.00209276
0.00152532
0.00168038
0.00150899
0.00127163
0.0014965
0.000868683
0.00147577
0.0004694
0.00146556
7.7469e-05
0.00143835
-0.000313963
0.00144841
-0.000692386
0.0013932
-0.00108625
0.00147544
-0.0014537
0.00137326
-0.0018427
0.00146358
-0.0022275
0.00146221
-0.00271561
0.00203054
-0.00283177
0.000163947
-0.00360174
0.00308102
-0.00448936
0.00464983
-0.00315857
-0.00703748
-0.00512024
0.00776693
-0.00730884
0.0122608
-0.00359947
-0.0191421
-0.00791021
0.0163462
-0.0157678
0.0435832
-0.00834809
-0.0300107
-0.000320586
-0.04565
-0.00950407
0.040126
-0.0169662
0.0470381
-0.00976467
-0.0239672
0.00219153
-0.053891
0.0134498
-0.0513006
0.0195838
-0.0297944
-0.0104401
0.0693944
0.0104481
-0.0689668
0.069878
0.0109129
0.0703987
0.0113541
0.0709209
0.0117407
0.0714048
0.0120524
0.0718168
0.0122787
0.0721307
0.0124201
0.0723272
0.0124831
0.0723923
0.0124775
0.0723159
0.0124136
0.0720912
0.0123008
0.0717144
0.0121466
0.0711848
0.0119573
0.0705049
0.0117378
0.06968
0.0114924
0.0687187
0.0112244
0.067632
0.0109369
0.0664333
0.010633
0.0651375
0.0103159
0.0637605
0.00998865
0.062318
0.00965444
0.0608258
0.00931634
0.0592985
0.00897728
0.0577496
0.00863992
0.056191
0.00830664
0.0546332
0.00797946
0.053085
0.00766005
0.0515539
0.00734974
0.0500458
0.00704953
0.0485655
0.00676015
0.0471168
0.00648206
0.0457023
0.0062155
0.0443241
0.00596058
0.0429835
0.00571722
0.0416811
0.00548527
0.0404173
0.00526448
0.0391921
0.00505454
0.0380049
0.00485512
0.0368554
0.00466582
0.0357425
0.00448627
0.0346654
0.00431605
0.0336231
0.0041548
0.0326144
0.00400209
0.0316382
0.00385758
0.0306931
0.00372087
0.0297781
0.00359164
0.0288918
0.00346952
0.028033
0.00335425
0.0272005
0.00324545
0.0263929
0.00314294
0.0256092
0.00304635
0.024848
0.00295557
0.0241082
0.0028702
0.0233886
0.00279025
0.0226881
0.00271526
0.0220056
0.00264535
0.0213399
0.00258001
0.02069
0.00251949
0.0200549
0.00246317
0.0194334
0.00241146
0.0188246
0.00236361
0.0182274
0.00232021
0.0176409
0.00228035
0.0170641
0.00224483
0.0164962
0.0022125
0.015936
0.00218445
0.0153828
0.00215921
0.0148356
0.00213824
0.0142936
0.0021196
0.0137559
0.00210526
0.0132219
0.00209268
0.0126905
0.0020844
0.0121613
0.00207719
0.0116333
0.00207426
0.0111062
0.00207151
0.0105791
0.00207293
0.010052
0.00207342
0.00952393
0.00207788
0.0089952
0.00208016
0.008465
0.00208609
0.00793395
0.00208844
0.00740139
0.00209397
0.0068683
0.00209446
0.00633419
0.00209756
0.00580039
0.00209431
0.0052666
0.00209311
0.00473448
0.00208447
0.00420384
0.00207755
0.00367662
0.00206236
0.00315257
0.00204937
0.00263395
0.0020276
0.00211988
0.00201057
0.0016133
0.00198236
0.00111146
0.0019674
0.000619768
0.00193004
0.000129823
0.00193836
-0.000344914
0.00186794
-0.000834495
0.00196502
-0.00129173
0.0018305
-0.00177372
0.00194558
-0.00224553
0.00193401
-0.00282744
0.00261245
-0.00300395
0.000340459
-0.00390549
0.00398257
-0.00487491
0.00561924
-0.00348736
-0.00842503
-0.00574859
0.0100282
-0.00804476
0.0145569
-0.00412003
-0.0230668
-0.0090848
0.021311
-0.0171345
0.0516329
-0.00867351
-0.0384717
-0.000437409
-0.053886
-0.0104786
0.0501672
-0.0173323
0.0538918
-0.00843099
-0.0328686
0.00498263
-0.0673046
0.0176895
-0.0640075
0.0244514
-0.0365564
-0.013015
0.0742734
0.0100652
-0.0738905
0.0746978
0.0104886
0.0751526
0.0108993
0.075617
0.0112763
0.0760653
0.0116041
0.0764728
0.0118712
0.0768198
0.0120731
0.0770915
0.0122113
0.0772778
0.0122913
0.0773711
0.0123202
0.0773659
0.0123061
0.0772568
0.0122556
0.0770398
0.0121743
0.0767108
0.0120668
0.0762668
0.0119364
0.0757058
0.0117853
0.0750278
0.0116149
0.0742344
0.0114264
0.0733295
0.0112208
0.0723191
0.0109991
0.071211
0.0107625
0.0700149
0.0105125
0.0687412
0.010251
0.0674013
0.00997984
0.0660067
0.00970121
0.0645689
0.00941724
0.0630989
0.00913009
0.0616068
0.00884177
0.0601022
0.00855418
0.0585933
0.008269
0.0570877
0.00798773
0.0555915
0.00771163
0.0541104
0.00744174
0.0526487
0.00717891
0.0512102
0.0069238
0.0497977
0.0066769
0.0484137
0.00643856
0.0470598
0.00620901
0.0457373
0.00598836
0.0444469
0.00577666
0.0431891
0.00557385
0.041964
0.00537986
0.0407716
0.00519454
0.0396114
0.00501775
0.038483
0.00484925
0.0373858
0.00468891
0.0363189
0.00453643
0.0352814
0.00439167
0.0342726
0.00425431
0.0332913
0.00412426
0.0323365
0.00400115
0.0314071
0.00388495
0.030502
0.00377525
0.0296202
0.00367211
0.0287604
0.00357504
0.0279215
0.00348423
0.0271024
0.00339911
0.0263019
0.00331999
0.0255189
0.00324618
0.0247522
0.00317818
0.0240007
0.00311511
0.0232632
0.00305771
0.0225387
0.00300488
0.0218259
0.00295762
0.0211239
0.00291452
0.0204314
0.00287696
0.0197475
0.0028431
0.0190709
0.00281478
0.0184009
0.00278961
0.0177362
0.00277001
0.017076
0.00275288
0.0164191
0.00274132
0.0157649
0.00273137
0.0151122
0.00272698
0.0144606
0.00272308
0.0138089
0.00272459
0.0131572
0.0027252
0.0125041
0.00273095
0.0118501
0.0027342
0.011194
0.00274215
0.0105366
0.00274579
0.00987714
0.00275348
0.00921664
0.00275496
0.00855452
0.00275968
0.00789239
0.00275644
0.00722988
0.00275562
0.00656901
0.00274534
0.00590961
0.00273696
0.00525411
0.00271787
0.00460224
0.00270123
0.00395696
0.00267289
0.00331722
0.00265032
0.00268695
0.00261262
0.00206281
0.00259154
0.00145195
0.00254089
0.000843309
0.002547
0.000255847
0.0024554
-0.000345932
0.0025668
-0.000909719
0.00239428
-0.0015
0.00253587
-0.00207171
0.00250573
-0.00276009
0.00330083
-0.00300839
0.000588767
-0.00404741
0.00502159
-0.00510207
0.00667389
-0.00368309
-0.00984401
-0.00622355
0.0125687
-0.00861134
0.0169447
-0.00452254
-0.0271556
-0.0100441
0.0268326
-0.0181236