/*--------------------------------*- C++ -*----------------------------------*\
| =========                 |                                                 |
| \\      /  F ield         | OpenFOAM: The Open Source CFD Toolbox           |
|  \\    /   O peration     | Version:  2412                                  |
|   \\  /    A nd           | Website:  www.openfoam.com                      |
|    \\/     M anipulation  |                                                 |
\*---------------------------------------------------------------------------*/
FoamFile
{
    version     2.0;
    format      ascii;
    arch        "LSB;label=32;scalar=64";
    class       volVectorField;
    location    "0.38";
    object      ddtCorrDdt0(U);
}
// * * * * * * * * * * * * * * * * * * * * * * * * * * * * * * * * * * * * * //

dimensions      [0 1 -2 0 0 0 0];

internalField   nonuniform List<vector> 
12600
(
(-3.04272 -1.07718e-19 -0.576324)
(-1.89068 -2.76223e-19 0.0106202)
(-0.804808 -2.18125e-19 0.171767)
(-0.425718 0 0.122974)
(-0.276348 -1.5181e-19 0.0798657)
(-0.111033 -1.39221e-19 0.0648602)
(0.0326056 0 0.0596981)
(0.0819989 0 0.0437743)
(0.0314578 -9.14372e-20 0.0220451)
(-0.0556076 0 0.00418899)
(-0.1 1.13036e-19 -0.000911782)
(-0.0628285 1.35705e-19 0.00623571)
(0.0299615 -1.6178e-19 0.0163521)
(0.112456 0 0.0191655)
(0.132517 -1.70264e-19 0.0106934)
(0.0894996 0 -0.0047215)
(0.0269318 1.33799e-19 -0.0182969)
(-0.00737176 0 -0.0234737)
(0.00376942 2.34152e-19 -0.0201542)
(0.0430432 2.71627e-19 -0.0134373)
(0.0811031 -2.24225e-19 -0.00874371)
(0.100747 -1.40286e-20 -0.00804462)
(0.103446 0 -0.0098401)
(0.0991704 1.5432e-19 -0.0118441)
(0.0939679 0 -0.0129774)
(0.087053 0 -0.0135749)
(0.0761758 4.99518e-19 -0.0140878)
(0.062989 0 -0.0143274)
(0.0523342 -5.79946e-21 -0.0138621)
(0.0476563 -7.79329e-19 -0.0124645)
(0.0480745 -6.8254e-19 -0.0107451)
(0.0496839 -5.42724e-19 -0.00936144)
(0.0493206 3.64173e-19 -0.0086787)
(0.0464551 4.59335e-19 -0.00866943)
(0.0423765 3.27402e-19 -0.00875784)
(0.0381265 -2.7249e-19 -0.00872359)
(0.0334996 0 -0.00837079)
(0.0277999 4.43005e-19 -0.00757956)
(0.0208466 0 -0.00658863)
(0.0132653 -4.0952e-19 -0.00526089)
(0.00588981 0 -0.0037421)
(-0.00106942 1.37046e-20 -0.00229963)
(-0.00802522 0 -0.000822166)
(-0.0155538 8.17832e-21 0.000473659)
(-0.0239128 1.34752e-18 0.00166298)
(-0.0326886 -1.25042e-18 0.00311784)
(-0.0412975 9.99849e-19 0.00481065)
(-0.0493599 0 0.00692805)
(-0.0568683 0 0.00954045)
(-0.063893 -6.61356e-20 0.0121826)
(-0.0705776 -3.83936e-19 0.0147886)
(-0.0761889 -2.67609e-19 0.0170239)
(-0.080407 3.20996e-20 0.0185608)
(-0.0824811 3.51905e-19 0.0193991)
(-0.0826617 0 0.0195309)
(-0.0807772 -5.05987e-19 0.0189669)
(-0.0777965 -1.71494e-19 0.0181869)
(-0.0738229 3.30394e-19 0.0171539)
(-0.0699388 0 0.0161229)
(-0.0663468 0 0.0149794)
(-0.0629837 0 0.0135701)
(-0.0595992 -3.0151e-18 0.0118029)
(-0.0554854 0 0.0098405)
(-0.0518666 0 0.00767226)
(-0.0482232 7.40544e-20 0.00562047)
(-0.0471452 0 0.00424963)
(-0.045679 0 0.00342574)
(-0.045798 0 0.00411746)
(-0.0442295 1.62945e-18 0.00559078)
(-0.0452106 -1.12548e-18 0.00803177)
(-0.0492594 -9.53146e-19 0.0102626)
(-0.0576591 3.19495e-20 0.0122107)
(-0.0703372 3.44243e-18 0.0135345)
(-0.0763319 0 0.0150038)
(-0.0821941 -5.47083e-18 0.0176715)
(-0.078024 0 0.0195713)
(-0.0842915 0 0.0214106)
(-0.0915063 0 0.0198802)
(-0.103606 -6.37522e-21 0.0189665)
(-0.109872 -1.18482e-18 0.0183831)
(-0.0986619 -2.23616e-19 0.020799)
(-0.109062 1.03583e-18 0.0239952)
(-0.124814 3.04752e-18 0.0273877)
(-0.163382 0 0.0296221)
(-0.161566 0 0.0218802)
(-0.106187 -3.77753e-18 0.0175375)
(-0.0909143 -1.08601e-17 0.0227603)
(-0.0981329 1.29013e-17 0.0304308)
(-0.183512 -2.56897e-18 0.0408914)
(-0.220495 0 0.0295879)
(-0.160938 1.06855e-17 0.019779)
(-0.0892779 2.59904e-18 0.0194453)
(-0.0385955 -1.22576e-18 0.0218679)
(-0.182965 -3.04164e-17 0.0522923)
(-0.220422 0 0.0309774)
(0.0308768 0 -0.0257837)
(0.319719 0 -0.0673519)
(0.376839 0 -0.062304)
(0.0471599 0 0.00690024)
(-0.297684 0 0.0431588)
(-0.20253 8.65676e-18 -0.00639465)
(-0.464888 -1.0203e-16 0.0706498)
(-1.34793 -1.33853e-16 0.27862)
(-2.18297 0 0.460169)
(-2.36263 0 0.470751)
(-1.98769 0 0.367272)
(-1.38952 2.37306e-17 0.244707)
(-0.942055 -7.29065e-17 0.185033)
(-0.995001 2.54817e-17 0.222467)
(-1.26041 0 0.273849)
(-1.84239 9.5515e-17 0.353465)
(-2.14967 0 0.377301)
(-2.91511 -2.31884e-16 0.524193)
(-3.22795 3.18441e-16 0.600532)
(-3.33146 -2.02867e-16 0.648564)
(-2.85048 5.3438e-17 0.51356)
(-1.50493 -2.26705e-16 0.287993)
(-0.561031 -6.31643e-21 0.115537)
(1.3509 -4.49626e-17 -0.281792)
(-0.164155 0 0.0127284)
(-4.38298 1.08744e-19 -0.909508)
(-3.79242 0 -0.216167)
(-2.7975 2.20787e-19 0.0945818)
(-1.96343 0 0.154204)
(-1.3286 1.53822e-19 0.159838)
(-0.839727 2.55941e-19 0.155205)
(-0.503108 8.16416e-20 0.14048)
(-0.335479 0 0.106226)
(-0.303714 1.93174e-21 0.0682582)
(-0.327168 -9.51638e-20 0.0445947)
(-0.317799 1.23222e-19 0.0434857)
(-0.233198 1.47654e-19 0.0556166)
(-0.0980311 -1.73203e-19 0.062299)
(0.0220011 1.88085e-19 0.0500062)
(0.0754485 3.45473e-19 0.0191236)
(0.063493 0 -0.0171493)
(0.030758 -1.18421e-20 -0.0420927)
(0.0234559 -1.21504e-19 -0.0468247)
(0.0554108 -2.37557e-19 -0.0354824)
(0.107184 0 -0.0204467)
(0.150288 0 -0.0123863)
(0.170474 -1.38137e-19 -0.0138599)
(0.171922 0 -0.0205375)
(0.165888 -7.60615e-20 -0.0271329)
(0.158471 2.3482e-19 -0.0312576)
(0.148976 0 -0.0335367)
(0.13569 -5.52948e-19 -0.0348537)
(0.121025 0 -0.0349248)
(0.110179 7.75134e-19 -0.0331605)
(0.106117 1.57971e-18 -0.0294296)
(0.107086 1.3685e-18 -0.0251258)
(0.108192 5.49336e-19 -0.0216196)
(0.10574 -3.68507e-19 -0.019511)
(0.0991514 -9.03734e-19 -0.018708)
(0.0899276 -6.56276e-19 -0.0181563)
(0.0794978 0 -0.0174104)
(0.0680075 0 -0.0162456)
(0.055071 2.15049e-20 -0.0144103)
(0.0408803 0 -0.0122645)
(0.0263163 4.13427e-19 -0.00965474)
(0.0123062 0 -0.00671174)
(-0.00100065 -1.43346e-19 -0.00387746)
(-0.0143121 0 -0.000987418)
(-0.0284847 -1.1707e-18 0.00176969)
(-0.0438529 0 0.00448241)
(-0.0600733 1.2591e-18 0.0077038)
(-0.0764391 0 0.0114256)
(-0.0925236 0 0.0158025)
(-0.108338 -1.51489e-19 0.0209283)
(-0.123845 0 0.0261163)
(-0.139094 0 0.0312616)
(-0.152978 0 0.035853)
(-0.165136 -8.61057e-20 0.0395258)
(-0.17428 -7.65105e-19 0.0421117)
(-0.181172 0 0.0437594)
(-0.185158 0 0.044246)
(-0.188108 1.33869e-19 0.0444494)
(-0.189475 -3.3038e-19 0.0440493)
(-0.191079 0 0.0436255)
(-0.192078 0 0.0427544)
(-0.193026 0 0.041439)
(-0.192838 0 0.039352)
(-0.191471 -2.15247e-18 0.0368223)
(-0.190298 1.02776e-18 0.0338574)
(-0.188636 -5.17023e-20 0.0306958)
(-0.19043 0 0.0286122)
(-0.190768 0 0.026858)
(-0.194749 0 0.0278455)
(-0.195427 -1.18978e-19 0.0296108)
(-0.202184 1.11471e-18 0.033823)
(-0.211281 9.43175e-19 0.0376218)
(-0.228202 -4.08691e-18 0.0419811)
(-0.250527 8.06667e-20 0.0455709)
(-0.264742 4.4294e-18 0.0490517)
(-0.282165 5.39299e-18 0.0547977)
(-0.280588 0 0.0576011)
(-0.295818 0 0.0618861)
(-0.297631 0 0.0589131)
(-0.314272 -3.48169e-18 0.0590959)
(-0.3175 0 0.0582352)
(-0.313298 0 0.0630999)
(-0.35568 -1.01378e-18 0.0731502)
(-0.403346 -2.97947e-18 0.0820498)
(-0.476247 0 0.0901403)
(-0.423055 0 0.0704607)
(-0.312305 0 0.0567696)
(-0.316644 1.08321e-17 0.0681953)
(-0.382785 -7.85731e-22 0.0881764)
(-0.582854 -2.73767e-18 0.120204)
(-0.564975 1.08832e-17 0.0945263)
(-0.416973 -1.04731e-17 0.0675697)
(-0.276763 2.40317e-18 0.0555044)
(-0.23742 2.24906e-18 0.0623065)
(-0.656492 0 0.145765)
(-0.542849 0 0.0867173)
(0.246964 0 -0.0809721)
(0.920643 0 -0.191138)
(0.837433 3.81958e-17 -0.149181)
(-0.182335 0 0.0603172)
(-0.901894 0 0.158387)
(-0.487303 7.98944e-18 0.0418279)
(-1.5736 4.89644e-17 0.279157)
(-4.3963 2.56359e-16 0.907276)
(-6.79573 -4.59507e-17 1.37436)
(-7.02749 0 1.36774)
(-5.62101 0 1.05158)
(-3.83963 0 0.700615)
(-2.79286 3.46976e-17 0.539752)
(-3.20403 -2.4251e-17 0.660336)
(-3.99344 0 0.818861)
(-5.43292 -1.81642e-16 1.06269)
(-6.05567 5.01375e-17 1.14759)
(-8.26406 4.402e-16 1.57916)
(-9.09584 0 1.75051)
(-9.40609 0 1.83085)
(-7.57796 5.07505e-17 1.41253)
(-3.45211 0 0.649891)
(-0.735158 2.05838e-16 0.139921)
(4.43897 4.21909e-17 -0.883962)
(-0.870758 0 0.167734)
(-4.40707 0 -0.963852)
(-4.42134 0 -0.57859)
(-4.04506 4.10357e-20 -0.322034)
(-3.38609 0 -0.128657)
(-2.64237 0 0.0216673)
(-1.95452 -1.26812e-19 0.106664)
(-1.42689 -7.73135e-20 0.131244)
(-1.09629 0 0.122166)
(-0.927505 -1.64644e-21 0.110645)
(-0.836009 9.01557e-20 0.115656)
(-0.735938 -2.43766e-19 0.131222)
(-0.584529 -1.39901e-19 0.136318)
(-0.398368 -8.87489e-21 0.115663)
(-0.232184 -1.78225e-19 0.0706741)
(-0.130637 -1.63651e-19 0.0166116)
(-0.0923747 1.02506e-19 -0.0267878)
(-0.0774496 -5.08704e-20 -0.0456266)
(-0.0456089 1.15141e-19 -0.0390061)
(0.0134283 0 -0.018646)
(0.0810254 0 -0.000590016)
(0.132767 -1.67535e-19 0.00496669)
(0.158854 -1.0501e-19 -0.00198313)
(0.165826 0 -0.014714)
(0.165217 0 -0.0265766)
(0.162489 -2.22505e-19 -0.0347723)
(0.156933 0 -0.0397333)
(0.147413 1.08583e-18 -0.042258)
(0.136877 -6.93065e-19 -0.0422258)
(0.130499 0 -0.0393901)
(0.130468 -7.48893e-19 -0.0342837)
(0.134334 -6.41791e-19 -0.0285734)
(0.13667 0 -0.0237539)
(0.133739 3.1252e-19 -0.0203962)
(0.125173 4.15887e-19 -0.0182576)
(0.11268 9.53165e-21 -0.0165513)
(0.098041 0 -0.0148508)
(0.0816742 0 -0.0130423)
(0.0635197 -4.44194e-19 -0.0109606)
(0.0441292 0 -0.00868887)
(0.0245383 0 -0.00617774)
(0.00575333 0 -0.00343253)
(-0.012182 0 -0.000655599)
(-0.0302214 0 0.00220768)
(-0.0493915 0 0.00524955)
(-0.070088 0 0.00855002)
(-0.0920652 -1.15668e-18 0.0123564)
(-0.11449 8.92829e-19 0.0167055)
(-0.136973 0 0.0215066)
(-0.159469 1.43323e-19 0.0267335)
(-0.181784 0 0.032017)
(-0.203829 0 0.0373123)
(-0.224162 1.25143e-19 0.0422794)
(-0.242402 0 0.0470047)
(-0.256937 3.89858e-19 0.0510966)
(-0.26909 -6.10143e-19 0.0549814)
(-0.277889 0 0.0580881)
(-0.286132 -1.26536e-19 0.0612265)
(-0.292571 0 0.0636288)
(-0.299815 0 0.0660029)
(-0.305796 0 0.0675005)
(-0.31187 2.91297e-18 0.0686394)
(-0.315884 2.73704e-18 0.0688408)
(-0.318805 5.88448e-20 0.0685915)
(-0.321659 -1.89416e-18 0.0678926)
(-0.324141 1.30838e-20 0.0664882)
(-0.330895 0 0.0657595)
(-0.335752 0 0.0642308)
(-0.346296 1.8249e-18 0.0650126)
(-0.352411 -1.26905e-19 0.0652799)
(-0.367888 0 0.0687867)
(-0.384531 0 0.0716229)
(-0.412038 1.95669e-18 0.0768094)
(-0.444529 6.70243e-20 0.081755)
(-0.468134 6.42858e-20 0.0863837)
(-0.496596 0 0.0931657)
(-0.498431 0 0.0949684)
(-0.521715 7.7807e-18 0.100435)
(-0.518164 -5.54931e-18 0.0970599)
(-0.540164 0 0.100227)
(-0.541128 0 0.0996475)
(-0.548998 0 0.106535)
(-0.621034 0 0.124264)
(-0.698339 0 0.138035)
(-0.793721 0 0.15024)
(-0.687623 0 0.119263)
(-0.537042 0 0.0988968)
(-0.57065 -1.05442e-17 0.116545)
(-0.701541 -5.89171e-18 0.149165)
(-0.993575 2.57306e-18 0.198221)
(-0.908957 -1.02267e-17 0.158533)
(-0.686733 1.00642e-17 0.117507)
(-0.491558 -2.25729e-18 0.091094)
(-0.495092 -9.98872e-19 0.110999)
(-1.14643 0 0.235242)
(-0.831313 0 0.125371)
(0.437269 0 -0.141082)
(1.40362 0 -0.290487)
(1.0727 -3.5834e-17 -0.172225)
(-0.617706 0 0.172139)
(-1.62135 0 0.306495)
(-0.999993 -7.4911e-18 0.164044)
(-3.06009 0 0.656699)
(-7.69728 -1.20215e-16 1.64118)
(-11.4197 4.3061e-17 2.28571)
(-11.5275 0 2.1966)
(-9.0738 0 1.64624)
(-6.22934 0 1.1027)
(-4.71895 3.23106e-17 0.887249)
(-5.54351 0 1.11308)
(-6.83698 1.44902e-17 1.3807)
(-9.09666 -1.45475e-19 1.78244)
(-10.0294 -4.69234e-17 1.93904)
(-13.5719 -4.12321e-16 2.63227)
(-14.573 0 2.79907)
(-14.7723 1.79731e-16 2.81226)
(-11.2219 -4.74709e-17 2.01465)
(-4.5226 -2.00392e-16 0.723398)
(-0.30853 0 -0.0600826)
(7.42341 -3.94499e-17 -1.47461)
(-2.31109 0 0.532566)
(-4.20151 0 -1.06212)
(-4.50744 0 -0.905255)
(-4.50343 -3.87926e-20 -0.694751)
(-4.17643 0 -0.460231)
(-3.63458 1.07527e-19 -0.237406)
(-3.01092 -2.16752e-19 -0.0713323)
(-2.44799 0 0.026413)
(-2.02693 4.21199e-20 0.0762108)
(-1.74322 4.06649e-20 0.113568)
(-1.53531 1.02206e-19 0.157252)
(-1.33717 1.20112e-19 0.19222)
(-1.11387 -1.57619e-19 0.191797)
(-0.872928 1.63602e-19 0.148606)
(-0.653061 -3.50886e-19 0.0800462)
(-0.490233 0 0.0133655)
(-0.385946 -1.8634e-19 -0.0293275)
(-0.309173 0 -0.03892)
(-0.227448 0 -0.0213018)
(-0.133122 0 0.00681906)
(-0.0422272 -2.0688e-19 0.0275728)
(0.0259332 4.52397e-22 0.0315212)
(0.0659809 -4.01017e-21 0.0204819)
(0.0863859 -7.48978e-20 0.00277665)
(0.0986924 0 -0.0139414)
(0.10769 0 -0.0264178)
(0.112597 0 -0.034754)
(0.112653 -1.09388e-18 -0.0395446)
(0.11115 -2.45264e-20 -0.0407489)
(0.113167 0 -0.0382371)
(0.120213 0 -0.0329445)
(0.1294 0 -0.0266906)
(0.135005 0 -0.0210218)
(0.133464 -5.76931e-19 -0.0167194)
(0.124736 0 -0.0134975)
(0.110779 2.82183e-19 -0.0108654)
(0.093754 0 -0.00853757)
(0.0743289 0 -0.00631288)
(0.0527342 4.38947e-19 -0.00416197)
(0.0297847 0 -0.00194894)
(0.00660438 0 0.000477514)
(-0.0157651 -1.66764e-19 0.00307019)
(-0.0374157 -1.78299e-19 0.00588955)
(-0.0594429 0 0.00896105)
(-0.0830281 -1.07666e-18 0.0123934)
(-0.108551 0 0.016347)
(-0.135793 2.17736e-18 0.0208787)
(-0.163789 -7.13589e-21 0.025979)
(-0.192149 0 0.0315317)
(-0.220698 0 0.0373855)
(-0.249159 5.87064e-20 0.0432466)
(-0.277256 2.8501e-19 0.0491386)
(-0.303312 -2.27448e-19 0.0546994)
(-0.326992 0 0.0602805)
(-0.346423 4.18573e-19 0.0654029)
(-0.363481 5.75952e-19 0.0707222)
(-0.376869 4.60781e-19 0.0754735)
(-0.390215 1.00678e-19 0.0805756)
(-0.401475 0 0.0848473)
(-0.414131 0 0.0891765)
(-0.424759 -2.52493e-18 0.0922504)
(-0.43584 -5.47726e-18 0.0950043)
(-0.443933 -2.5815e-18 0.0965939)
(-0.451368 4.85182e-20 0.0978669)
(-0.458406 8.70939e-19 0.0986823)
(-0.465543 4.72994e-21 0.0987462)
(-0.477476 0 0.0994004)
(-0.487427 0 0.0987575)
(-0.504686 -1.71975e-18 0.100435)
(-0.516678 -2.32582e-18 0.100795)
(-0.540985 0 0.105077)
(-0.565245 -7.80574e-19 0.108056)
(-0.6034 -1.88624e-18 0.114576)
(-0.645264 -3.15339e-18 0.120519)
(-0.678086 -8.02005e-18 0.126469)
(-0.715799 0 0.134347)
(-0.720903 0 0.135983)
(-0.751114 -7.32182e-18 0.142289)
(-0.743379 1.04373e-17 0.137593)
(-0.772317 3.11514e-18 0.142663)
(-0.772414 0 0.142045)
(-0.79594 0 0.153645)
(-0.894887 0 0.178781)
(-0.999517 0 0.197399)
(-1.10787 0 0.208624)
(-0.95265 0 0.162832)
(-0.777423 2.46643e-18 0.141835)
(-0.847426 -1.65514e-19 0.172079)
(-1.04501 5.62256e-18 0.221296)
(-1.40743 0 0.278854)
(-1.25367 -9.81837e-18 0.214865)
(-0.973843 -4.78515e-18 0.162437)
(-0.738803 0 0.133121)
(-0.810161 -7.90996e-19 0.179924)
(-1.64618 2.64605e-17 0.334225)
(-1.1017 0 0.145076)
(0.570235 0 -0.204823)
(1.73132 0 -0.363161)
(1.05648 -3.37308e-17 -0.138758)
(-1.25884 0 0.333723)
(-2.48176 0 0.476381)
(-1.78726 -6.81827e-18 0.335094)
(-4.9544 -4.36773e-17 1.06077)
(-11.2121 0 2.44727)
(-15.9849 0 3.22712)
(-15.8165 0 2.97165)
(-12.3298 0 2.18534)
(-8.55485 0 1.48126)
(-6.70973 -4.659e-20 1.25625)
(-7.97961 0 1.60721)
(-9.74453 -1.35595e-17 1.98073)
(-12.7858 7.97404e-17 2.52766)
(-13.9997 0 2.75198)
(-18.7258 -7.47012e-20 3.68026)
(-19.5267 0 3.76177)
(-19.35 9.86383e-20 3.64682)
(-13.8148 0 2.35362)
(-4.82595 1.87359e-16 0.647117)
(0.528006 0 -0.333183)
(10.1244 -3.6636e-17 -1.98137)
(-4.54772 0 1.07663)
(-4.03208 0 -1.28031)
(-4.39528 0 -1.14669)
(-4.50796 0 -0.932222)
(-4.40869 0 -0.692999)
(-4.10532 -1.01496e-19 -0.463048)
(-3.6691 -3.73737e-21 -0.272689)
(-3.22162 0 -0.133961)
(-2.84451 -3.97531e-20 -0.0374176)
(-2.54489 0 0.04643)
(-2.28373 -2.05042e-19 0.132728)
(-2.02418 0 0.196642)
(-1.75214 1.48803e-19 0.202879)
(-1.47392 0 0.149452)
(-1.21199 3.31292e-19 0.0693131)
(-0.99121 -1.36784e-19 0.00101193)
(-0.817076 1.62652e-19 -0.0328574)
(-0.671321 -9.79983e-21 -0.0291298)
(-0.532201 1.18244e-19 0.000476867)
(-0.395343 0 0.0364323)
(-0.273633 1.95351e-19 0.0606697)
(-0.180981 1.49207e-19 0.064785)
(-0.118685 1.95613e-19 0.051777)
(-0.0768181 7.07234e-20 0.0308837)
(-0.0440262 0 0.0103618)
(-0.0161404 0 -0.00603324)
(0.00585021 0 -0.0180525)
(0.0213086 5.31074e-19 -0.0260251)
(0.0336729 6.42032e-19 -0.0297842)
(0.0480195 0 -0.029163)
(0.0654983 0 -0.0250147)
(0.0830426 -5.52936e-19 -0.0191664)
(0.0948148 0 -0.0131747)
(0.0974673 8.8802e-21 -0.00805545)
(0.09126 3.0656e-19 -0.00380603)
(0.0784001 -2.40549e-19 -0.00021962)
(0.061423 0 0.00274063)
(0.0412398 0 0.00527558)
(0.0183631 -4.14287e-19 0.00740088)
(-0.00620777 0 0.00934765)
(-0.0313054 0 0.0114543)
(-0.0558412 1.57369e-19 0.0137261)
(-0.0800439 1.68244e-19 0.0164269)
(-0.105042 0 0.0196539)
(-0.132148 1.01581e-18 0.0234702)
(-0.161684 0 0.0280435)
(-0.193432 -1.02311e-18 0.0333018)
(-0.226284 -7.88879e-19 0.0391353)
(-0.259843 0 0.0454253)
(-0.293745 -1.08511e-19 0.051939)
(-0.327671 -5.53634e-20 0.0583611)
(-0.361135 -5.52525e-19 0.064785)
(-0.392307 1.0304e-19 0.0707831)
(-0.420907 1.68551e-19 0.0769152)
(-0.44487 -1.55159e-20 0.0826514)
(-0.466573 0 0.0888974)
(-0.484368 -4.34304e-19 0.0946911)
(-0.502661 -9.48836e-20 0.101172)
(-0.518502 -3.48123e-19 0.106702)
(-0.536358 8.57682e-19 0.112468)
(-0.551322 2.37885e-18 0.116653)
(-0.567286 2.57127e-18 0.120701)
(-0.579291 -2.36888e-18 0.123394)
(-0.591397 1.70757e-18 0.126059)
(-0.602647 0 0.128246)
(-0.61481 0 0.129818)
(-0.631982 -6.92197e-19 0.132027)
(-0.647453 0 0.132721)
(-0.671393 0 0.136052)
(-0.689556 1.04946e-18 0.137492)
(-0.722509 0 0.143709)
(-0.754164 7.34402e-19 0.147797)
(-0.802523 3.53844e-18 0.156518)
(-0.852588 0 0.163604)
(-0.894049 3.78842e-18 0.171042)
(-0.939137 0 0.179579)
(-0.947388 0 0.18082)
(-0.98329 6.85396e-18 0.187427)
(-0.972544 -4.90259e-18 0.181094)
(-1.00937 6.56017e-21 0.188234)
(-1.00997 0 0.187735)
(-1.05183 0 0.205516)
(-1.17431 0 0.23669)
(-1.30342 2.55056e-18 0.258646)
(-1.41623 -5.63605e-18 0.264901)
(-1.21852 0 0.204222)
(-1.03333 -4.47128e-18 0.188358)
(-1.14553 4.88652e-18 0.234596)
(-1.40843 -1.06152e-17 0.300643)
(-1.82027 2.39624e-18 0.359088)
(-1.60018 1.84313e-17 0.267728)
(-1.28076 0 0.209152)
(-1.02566 0 0.183191)
(-1.18335 7.41686e-19 0.264653)
(-2.15597 -2.48071e-17 0.433974)
(-1.37276 3.76446e-17 0.150343)
(0.613568 0 -0.266484)
(1.86997 0 -0.396651)
(0.772485 3.16037e-17 -0.0330655)
(-2.1027 -1.573e-18 0.555905)
(-3.51037 0 0.68144)
(-2.88623 6.38547e-18 0.582721)
(-7.19679 4.0899e-17 1.75731)
(-14.8802 0 3.32777)
(-20.4368 0 4.15227)
(-19.8601 0 3.67044)
(-15.3828 0 2.64903)
(-10.8147 0 1.82543)
(-8.75183 -2.82535e-17 1.63649)
(-10.4749 0 2.12552)
(-12.6672 0 2.59954)
(-16.4475 0 3.27914)
(-17.885 4.08946e-17 3.56373)
(-23.6166 1.80454e-16 4.68431)
(-23.8604 0 4.58619)
(-23.1244 -1.57229e-16 4.28231)
(-15.4458 0 2.46197)
(-4.53676 1.74357e-16 0.393994)
(1.53564 0 -0.693948)
(12.4188 3.42377e-17 -2.378)
(-7.53704 0 1.82984)
(-3.88128 4.59543e-20 -1.41257)
(-4.22181 2.99893e-20 -1.25455)
(-4.33959 -5.09364e-20 -1.038)
(-4.34812 -9.02833e-20 -0.818686)
(-4.19702 0 -0.611783)
(-3.92202 9.92439e-20 -0.432745)
(-3.61878 0 -0.288081)
(-3.35338 -3.57647e-20 -0.17474)
(-3.12456 5.26685e-20 -0.0691812)
(-2.89435 2.14749e-19 0.0458569)
(-2.64081 -1.45804e-19 0.140345)
(-2.37031 1.62347e-19 0.165244)
(-2.096 0 0.11469)
(-1.8283 0 0.0330821)
(-1.57833 1.28958e-19 -0.0289617)
(-1.35266 -4.61862e-21 -0.0475801)
(-1.14682 2.02519e-21 -0.0259717)
(-0.95296 -8.2687e-21 0.0182925)
(-0.772441 0 0.0638399)
(-0.616128 0 0.0935165)
(-0.493248 0 0.100353)
(-0.401913 -1.76825e-19 0.0881679)
(-0.331629 -6.96172e-20 0.0665204)
(-0.271667 0 0.0438936)
(-0.218426 0 0.024475)
(-0.173169 -3.85815e-19 0.00899908)
(-0.136699 0 -0.00254348)
(-0.105739 0 -0.00969913)
(-0.0750947 0 -0.0120872)
(-0.0435301 0 -0.0101646)
(-0.0139578 3.54587e-21 -0.00548996)
(0.00779406 0 0.000384098)
(0.0184463 2.11693e-21 0.00620317)
(0.0183993 -2.88978e-19 0.0114723)
(0.0100233 2.49544e-21 0.0160072)
(-0.00380235 0 0.0195839)
(-0.0218818 0 0.0222898)
(-0.0434242 0 0.0242141)
(-0.0672713 0 0.0256547)
(-0.0922395 0 0.0271326)
(-0.117161 0 0.0288287)
(-0.142362 0 0.0311716)
(-0.168911 -5.85967e-19 0.0343741)
(-0.198241 -9.60866e-19 0.0384719)
(-0.230589 0 0.0435514)
(-0.265751 -9.57641e-19 0.0494537)
(-0.302444 0 0.0559515)
(-0.340259 0 0.0628971)
(-0.378604 2.00708e-19 0.070022)
(-0.417123 0 0.0769338)
(-0.455137 2.67239e-19 0.0837924)
(-0.490704 0 0.0901097)
(-0.523604 -2.9123e-19 0.0966376)
(-0.551625 -2.81285e-20 0.102809)
(-0.577595 0 0.109806)
(-0.599462 0 0.116417)
(-0.622418 0 0.124058)
(-0.642483 6.65613e-19 0.130553)
(-0.665256 -1.61973e-18 0.137479)
(-0.684218 -2.23455e-18 0.14246)
(-0.704949 -2.37802e-18 0.147578)
(-0.720706 4.42784e-18 0.151155)
(-0.737667 1.52624e-18 0.155117)
(-0.753161 0 0.158573)
(-0.770746 0 0.161644)
(-0.793261 -1.79117e-20 0.165405)
(-0.814747 0 0.167526)
(-0.845444 0 0.172668)
(-0.870183 8.73229e-19 0.175421)
(-0.911687 0 0.183872)
(-0.950579 0 0.18926)
(-1.00866 -3.29772e-18 0.200386)
(-1.06578 2.82292e-18 0.208474)
(-1.1152 0 0.217393)
(-1.1659 0 0.226214)
(-1.1772 0 0.226991)
(-1.21766 -6.43692e-18 0.233588)
(-1.20522 0 0.225744)
(-1.25061 -5.51665e-18 0.235278)
(-1.25309 1.06629e-18 0.235365)
(-1.31487 0 0.260367)
(-1.45672 0 0.297111)
(-1.60695 -2.39341e-18 0.320864)
(-1.71748 7.22163e-21 0.319074)
(-1.48683 -4.89986e-18 0.244407)
(-1.30532 2.02233e-18 0.238879)
(-1.46342 4.83143e-18 0.30364)
(-1.78688 5.00643e-18 0.385607)
(-2.22959 -2.2467e-18 0.438465)
(-1.9522 -3.15324e-20 0.318571)
(-1.6123 0 0.25915)
(-1.35862 -1.73248e-18 0.24349)
(-1.61289 0 0.364265)
(-2.67745 0 0.534448)
(-1.66713 -3.5266e-17 0.147809)
(0.533925 0 -0.313499)
(1.78643 0 -0.381749)
(0.205936 0 0.143568)
(-3.152 1.47282e-18 0.82733)
(-4.74027 0 0.929309)
(-4.31584 5.80847e-18 0.914853)
(-9.87333 0 2.16684)
(-18.6502 0 4.27774)
(-24.7187 0 5.03203)
(-23.6233 0 4.3054)
(-18.2269 0 3.03995)
(-13.0024 1.6787e-17 2.13646)
(-10.8222 -2.63858e-17 2.02524)
(-12.9802 1.78329e-17 2.66129)
(-15.5457 0 3.23033)
(-20.018 0 4.03017)
(-21.5958 -7.63127e-17 4.3611)
(-28.1431 0 5.6283)
(-27.5069 2.31048e-16 5.26521)
(-26.1199 0 4.73336)
(-16.26 -3.82676e-17 2.3572)
(-3.83342 -1.62934e-16 0.0314044)
(2.49187 0 -1.05556)
(14.2435 3.17982e-17 -2.6334)
(-11.1584 0 2.76503)
(-3.73806 -4.32738e-20 -1.38507)
(-4.03008 -9.45799e-20 -1.22712)
(-4.14535 4.79786e-20 -1.04655)
(-4.19777 -2.05002e-20 -0.867856)
(-4.11756 -1.23058e-19 -0.696886)
(-3.93493 0 -0.542549)
(-3.73117 0 -0.409396)
(-3.56176 3.36768e-20 -0.300024)
(-3.41991 -1.06946e-19 -0.195625)
(-3.26181 8.30099e-21 -0.0727724)
(-3.06357 1.37282e-19 0.0429744)
(-2.8394 -1.52857e-19 0.0909797)
(-2.61066 1.57799e-19 0.052746)
(-2.38203 0 -0.0242006)
(-2.14982 0 -0.0778919)
(-1.91429 -6.51173e-20 -0.0802377)
(-1.67936 1.511e-20 -0.0391998)
(-1.45081 -1.81003e-19 0.0217348)
(-1.23811 0 0.0791934)
(-1.05253 0 0.117141)
(-0.900332 0 0.130149)
(-0.777975 1.47497e-20 0.122554)
(-0.675852 1.22134e-19 0.103612)
(-0.584862 -7.59793e-20 0.0815716)
(-0.502156 -2.4575e-19 0.0609129)
(-0.429219 7.25723e-19 0.0430313)
(-0.367278 -4.92275e-19 0.0283884)
(-0.313741 -5.84945e-19 0.0177724)
(-0.263393 -6.22965e-19 0.0119229)
(-0.214443 0 0.0109844)
(-0.169173 4.87455e-19 0.0139928)
(-0.133231 -3.62145e-19 0.019515)
(-0.110113 2.25916e-19 0.0260253)
(-0.0996051 2.76787e-19 0.0324196)
(-0.0994055 4.30262e-19 0.0379529)
(-0.106387 0 0.0421315)
(-0.119008 0 0.0448771)
(-0.136197 3.66958e-19 0.0463822)
(-0.156607 0 0.0470621)
(-0.179054 -3.05194e-19 0.0475985)
(-0.202239 -1.30127e-19 0.0484349)
(-0.226509 0 0.0501737)
(-0.252797 1.1045e-18 0.0531397)
(-0.282653 9.04235e-19 0.0573827)
(-0.316225 0 0.0628378)
(-0.353379 9.01103e-19 0.069268)
(-0.392609 6.9398e-19 0.0763355)
(-0.433492 0 0.0838257)
(-0.475174 -1.83241e-19 0.091471)
(-0.517255 -6.01668e-20 0.0987696)
(-0.558885 -2.83416e-19 0.105944)
(-0.59803 0 0.11245)
(-0.634537 2.98979e-20 0.119244)
(-0.666032 -5.85707e-19 0.125708)
(-0.695792 0 0.133357)
(-0.72126 0 0.140645)
(-0.748484 3.52507e-20 0.149336)
(-0.772309 -3.17744e-19 0.156604)
(-0.799664 1.5336e-18 0.164511)
(-0.822239 2.10053e-18 0.17004)
(-0.847612 2.2352e-18 0.176041)
(-0.866923 -2.06686e-18 0.180284)
(-0.888898 -2.83142e-18 0.185439)
(-0.908607 0 0.190042)
(-0.931971 0 0.194578)
(-0.959884 1.27749e-18 0.199864)
(-0.987839 0 0.203429)
(-1.02536 0 0.210451)
(-1.05703 -8.2015e-19 0.214568)
(-1.10697 0 0.225366)
(-1.15287 5.29637e-19 0.232006)
(-1.22012 2.10957e-20 0.245556)
(-1.28316 -2.65018e-18 0.254366)
(-1.33979 0 0.264663)
(-1.39452 0 0.2734)
(-1.40884 0 0.273637)
(-1.45293 -6.0043e-18 0.28008)
(-1.44023 0 0.270982)
(-1.49467 2.59112e-18 0.283407)
(-1.5003 -2.02434e-18 0.284614)
(-1.58244 0 0.31773)
(-1.73917 0 0.359374)
(-1.90693 0 0.383278)
(-2.01079 5.31999e-21 0.370968)
(-1.75906 4.59348e-18 0.283855)
(-1.5932 1.64866e-18 0.293837)
(-1.79841 -4.52822e-18 0.379209)
(-2.17525 4.80997e-18 0.475443)
(-2.63448 0 0.5168)
(-2.31455 -8.06893e-18 0.368223)
(-1.97368 0 0.313719)
(-1.74318 1.62275e-18 0.315551)
(-2.09616 0 0.478789)
(-3.21667 0 0.636294)
(-2.01177 0 0.141457)
(0.296096 1.17625e-17 -0.338384)
(1.45138 -2.2612e-17 -0.309326)
(-0.650465 0 0.398285)
(-4.40765 -1.45014e-18 1.15799)
(-6.20644 2.55661e-17 1.22728)
(-6.12163 -5.43485e-18 1.33673)
(-12.7464 -3.66406e-17 3.35575)
(-22.4347 0 5.26157)
(-28.7734 0 5.87788)
(-27.086 0 4.84422)
(-20.8589 0 3.35514)
(-15.107 -1.56973e-17 2.41291)
(-12.8884 7.42649e-21 2.41677)
(-15.437 -3.31842e-17 3.20161)
(-18.3128 0 3.85792)
(-23.425 0 4.76363)
(-25.0406 3.55919e-17 5.12212)
(-32.2236 0 6.48712)
(-30.4469 -2.15915e-16 5.78346)
(-28.4138 0 5.00436)
(-16.4453 7.10949e-17 2.07023)
(-2.90922 0 -0.411605)
(3.18736 0 -1.39395)
(15.593 -2.97045e-17 -2.73793)
(-15.2104 0 3.85845)
(-3.61325 0 -1.25681)
(-3.85842 6.24091e-20 -1.12909)
(-3.98699 0 -1.01002)
(-4.05368 9.9297e-20 -0.878819)
(-3.99981 2.34996e-19 -0.745136)
(-3.86012 0 -0.618615)
(-3.70648 -5.59134e-20 -0.502771)
(-3.58795 0 -0.404238)
(-3.50239 -9.26788e-21 -0.310173)
(-3.40852 -2.22267e-19 -0.193205)
(-3.27505 0 -0.0686953)
(-3.11129 0 -0.000226347)
(-2.94293 -1.48419e-19 -0.0207098)
(-2.77657 0 -0.0887984)
(-2.59909 0 -0.135995)
(-2.39921 0 -0.127445)
(-2.17918 -7.82118e-21 -0.0716469)
(-1.95175 7.88303e-20 0.00387666)
(-1.7332 9.86508e-20 0.0736219)
(-1.53653 0 0.122047)
(-1.3668 0 0.144738)
(-1.22031 6.08638e-20 0.146033)
(-1.08992 -5.3216e-20 0.134181)
(-0.969678 7.14604e-20 0.116487)
(-0.858223 2.31133e-19 0.0974062)
(-0.757198 -6.74482e-19 0.079123)
(-0.668285 8.12361e-21 0.0628487)
(-0.590255 5.50138e-19 0.0497085)
(-0.518459 5.85888e-19 0.0407938)
(-0.450321 0 0.0369734)
(-0.386879 0 0.038194)
(-0.333219 3.40573e-19 0.0434096)
(-0.29332 0 0.0508118)
(-0.267659 -2.60287e-19 0.0586081)
(-0.254431 -2.0608e-19 0.0653309)
(-0.2505 2.17127e-19 0.0701622)
(-0.253964 0 0.0728812)
(-0.263468 -3.45043e-19 0.0737947)
(-0.277419 -3.35123e-19 0.0735071)
(-0.294638 5.5999e-21 0.0728636)
(-0.313641 2.42904e-19 0.0725906)
(-0.334708 0 0.0735064)
(-0.358548 -5.19914e-19 0.0760263)
(-0.386832 0 0.0802495)
(-0.419641 0 0.0859308)
(-0.456993 0 0.0927348)
(-0.497138 -6.9099e-21 0.100235)
(-0.539627 0 0.108122)
(-0.58331 8.51202e-20 0.116153)
(-0.62773 1.15407e-19 0.123704)
(-0.671903 2.6633e-19 0.13106)
(-0.713685 0 0.137602)
(-0.753021 8.9021e-20 0.144533)
(-0.787296 4.87363e-19 0.151132)
(-0.820272 0 0.159327)
(-0.848741 0 0.167143)
(-0.879744 -3.31128e-20 0.176776)
(-0.906768 3.25474e-19 0.184635)
(-0.938335 -7.22924e-19 0.193378)
(-0.964082 -1.96898e-18 0.199237)
(-0.99396 0 0.205986)
(-1.01657 0 0.210714)
(-1.04366 3.5168e-20 0.216983)
(-1.06746 -4.9738e-19 0.222637)
(-1.09689 0 0.228612)
(-1.13019 -6.09285e-19 0.235419)
(-1.16499 0 0.240428)
(-1.20937 0 0.249395)
(-1.24823 0 0.25486)
(-1.30646 0 0.268069)
(-1.35906 -3.50438e-20 0.275807)
(-1.43487 2.21809e-20 0.291713)
(-1.50271 2.46487e-18 0.300888)
(-1.56586 0 0.312379)
(-1.62323 3.80947e-18 0.320664)
(-1.64062 0 0.32025)
(-1.68766 5.63023e-18 0.32648)
(-1.67616 -4.03537e-18 0.316404)
(-1.74 2.44495e-18 0.332232)
(-1.74983 9.60002e-19 0.335048)
(-1.85179 0 0.376844)
(-2.01875 -9.35182e-19 0.422591)
(-2.20049 0 0.444974)
(-2.29587 4.63435e-18 0.420626)
(-2.0363 4.22858e-18 0.323305)
(-1.89616 -1.54446e-18 0.353505)
(-2.14714 0 0.460674)
(-2.56888 -9.06691e-18 0.5688)
(-3.03546 0 0.594242)
(-2.69238 -7.40042e-18 0.418477)
(-2.37001 0 0.374912)
(-2.18382 1.64367e-18 0.400982)
(-2.6312 0 0.607102)
(-3.78402 -2.02872e-17 0.741266)
(-2.43487 3.03899e-17 0.139761)
(-0.133824 -1.10073e-17 -0.330658)
(0.840606 2.11581e-17 -0.171459)
(-1.79999 0 0.730573)
(-5.87571 2.74819e-18 1.54475)
(-7.94146 -4.77756e-17 1.58779)
(-8.25049 0 1.8732)
(-15.906 3.42677e-17 4.57072)
(-26.2222 0 6.26484)
(-32.5522 0 6.67679)
(-30.2284 3.97399e-17 5.2901)
(-23.2756 0 3.59416)
(-17.1109 0 2.65241)
(-14.9075 2.30536e-17 2.80377)
(-17.7758 3.06856e-17 3.73423)
(-20.8893 -1.09034e-17 4.46931)
(-26.5829 0 5.4643)
(-28.1265 0 5.82847)
(-35.7965 0 7.24553)
(-32.7063 0 6.14247)
(-30.1229 1.29203e-16 5.11586)
(-16.2143 -3.30131e-17 1.64237)
(-1.93967 0 -0.888168)
(3.47078 0 -1.66234)
(16.5233 0 -2.69477)
(-19.4246 0 5.06415)
(-3.51013 -4.79367e-20 -1.15084)
(-3.73873 0 -1.05917)
(-3.881 -5.86267e-20 -0.986483)
(-3.94072 0 -0.888899)
(-3.89393 -1.12053e-19 -0.783339)
(-3.77457 0 -0.680475)
(-3.6423 5.25516e-20 -0.580702)
(-3.53996 -4.17462e-21 -0.490783)
(-3.47531 1.26684e-19 -0.405109)
(-3.41909 -5.94336e-21 -0.298023)
(-3.33647 0 -0.17533)
(-3.22443 0 -0.0936893)
(-3.106 0 -0.0944439)
(-2.99413 0 -0.148416)
(-2.87659 0 -0.189292)
(-2.73431 0 -0.176946)
(-2.56204 4.67925e-21 -0.115908)
(-2.37086 5.24765e-20 -0.0333021)
(-2.1782 -9.26923e-20 0.044841)
(-1.99709 0 0.103087)
(-1.8315 0 0.137144)
(-1.67785 -2.80735e-20 0.150624)
(-1.53189 -3.0087e-20 0.150074)
(-1.39201 -5.38979e-20 0.140965)
(-1.25948 0 0.127017)
(-1.13627 3.13441e-19 0.111093)
(-1.02415 8.44115e-19 0.0955002)
(-0.923655 -4.9874e-19 0.0817878)
(-0.831767 0 0.0711797)
(-0.745537 0 0.0651962)
(-0.66423 0 0.0649421)
(-0.591649 -3.22145e-19 0.0701707)
(-0.532237 0 0.078912)
(-0.487704 0 0.0886196)
(-0.457379 -2.25839e-19 0.0969665)
(-0.4386 -2.0397e-19 0.1027)
(-0.429227 0 0.105501)
(-0.427674 -3.28313e-19 0.10582)
(-0.432037 6.29426e-19 0.104504)
(-0.441162 2.64269e-19 0.102598)
(-0.453339 -1.13241e-19 0.10108)
(-0.468717 0 0.101025)
(-0.487662 0 0.102936)
(-0.511958 0 0.106979)
(-0.541657 8.52739e-19 0.112736)