/*--------------------------------*- C++ -*----------------------------------*\
| =========                 |                                                 |
| \\      /  F ield         | OpenFOAM: The Open Source CFD Toolbox           |
|  \\    /   O peration     | Version:  2412                                  |
|   \\  /    A nd           | Website:  www.openfoam.com                      |
|    \\/     M anipulation  |                                                 |
\*---------------------------------------------------------------------------*/
FoamFile
{
    version     2.0;
    format      ascii;
    arch        "LSB;label=32;scalar=64";
    class       volVectorField;
    location    "0.04";
    object      ddt0(U);
}
// * * * * * * * * * * * * * * * * * * * * * * * * * * * * * * * * * * * * * //

dimensions      [0 1 -2 0 0 0 0];

internalField   nonuniform List<vector> 
12600
(
(7.60614 2.31357e-19 -0.638899)
(8.52689 6.47079e-19 -1.0782)
(7.84575 9.38884e-19 -1.17465)
(7.27486 0 -1.2219)
(6.89317 9.53674e-19 -1.24179)
(6.63864 8.25327e-19 -1.24412)
(6.54472 0 -1.21942)
(6.56944 0 -1.17358)
(6.62916 -2.19691e-18 -1.12634)
(6.63679 0 -1.09909)
(6.56463 1.172e-18 -1.10304)
(6.4548 1.14582e-18 -1.12707)
(6.39024 -1.03984e-18 -1.15522)
(6.42433 0 -1.17322)
(6.53098 -9.49272e-19 -1.17439)
(6.64285 0 -1.17204)
(6.66088 5.27413e-18 -1.17192)
(6.5454 0 -1.1837)
(6.3476 -2.97562e-18 -1.20863)
(6.12957 -2.56569e-18 -1.22724)
(5.99401 1.76845e-18 -1.23953)
(6.00483 2.86978e-20 -1.24449)
(6.09005 0 -1.22507)
(6.24735 9.01429e-19 -1.21718)
(6.41803 0 -1.21225)
(6.48385 0 -1.19532)
(6.57704 1.2881e-18 -1.21207)
(6.57434 0 -1.20316)
(6.52112 2.70804e-21 -1.21099)
(6.50759 -1.26923e-18 -1.22612)
(6.43089 -1.88782e-18 -1.2278)
(6.4988 -2.59216e-18 -1.24641)
(6.60172 2.9059e-18 -1.23581)
(6.80709 5.95618e-18 -1.24231)
(6.98045 4.05145e-18 -1.22373)
(7.09592 -2.29248e-18 -1.235)
(7.13816 0 -1.23219)
(7.09893 -2.20354e-18 -1.243)
(7.08043 0 -1.23385)
(7.01283 4.17599e-18 -1.21293)
(6.9859 0 -1.24154)
(6.93492 -1.36611e-21 -1.26966)
(6.92573 0 -1.28508)
(6.92743 -7.08289e-21 -1.30822)
(7.0017 6.71997e-20 -1.32116)
(7.07061 1.3981e-18 -1.32583)
(7.1286 -2.45738e-18 -1.33578)
(7.18495 0 -1.34291)
(7.27325 0 -1.35312)
(7.27956 -1.93657e-18 -1.3448)
(7.34899 -5.40827e-18 -1.35818)
(7.4647 -2.23932e-19 -1.35691)
(7.38128 3.25074e-20 -1.35371)
(7.39076 2.54657e-18 -1.36485)
(7.49789 0 -1.37107)
(7.31292 -1.06478e-17 -1.36296)
(7.34349 -2.48618e-18 -1.38189)
(7.52388 -9.1029e-18 -1.37218)
(7.21277 0 -1.37498)
(7.33845 0 -1.3882)
(7.48109 0 -1.37071)
(7.06198 1.17183e-17 -1.38615)
(7.40224 0 -1.37869)
(7.35911 0 -1.35691)
(7.03041 1.9019e-17 -1.3866)
(7.45855 0 -1.3468)
(7.0938 0 -1.36309)
(7.11448 0 -1.36463)
(7.28597 8.89781e-18 -1.32912)
(6.95047 2.03174e-17 -1.35742)
(7.20178 3.07376e-17 -1.31765)
(6.96526 -5.70639e-20 -1.32538)
(6.97215 -4.77576e-17 -1.31728)
(6.95904 0 -1.29111)
(6.75953 4.02393e-17 -1.3035)
(6.8843 0 -1.26121)
(6.64166 0 -1.26958)
(6.69443 0 -1.24138)
(6.53893 -5.55729e-20 -1.23353)
(6.49516 7.97171e-17 -1.21788)
(6.39163 1.41133e-17 -1.19839)
(6.28941 -8.21133e-17 -1.18519)
(6.24488 -2.00838e-17 -1.15531)
(6.04389 0 -1.14847)
(6.0281 0 -1.11358)
(5.81663 8.95566e-17 -1.10101)
(5.75243 -2.30615e-16 -1.0696)
(5.57019 1.39274e-16 -1.04669)
(5.45914 1.31771e-16 -1.01597)
(5.2837 0 -0.988151)
(5.13237 -2.78147e-16 -0.956401)
(4.94958 5.04981e-17 -0.922103)
(4.78696 -1.40559e-16 -0.888542)
(4.5854 8.68313e-17 -0.847764)
(4.3619 0 -0.814464)
(4.19109 0 -0.766469)
(3.91119 0 -0.726132)
(3.67293 0 -0.676509)
(3.47618 0 -0.631634)
(3.17184 0 -0.579072)
(2.89614 -2.12268e-16 -0.530615)
(2.6002 -2.23472e-16 -0.459603)
(2.2787 -3.28623e-16 -0.412279)
(1.88847 0 -0.329786)
(1.62586 0 -0.278926)
(1.1215 0 -0.182529)
(0.819731 -2.7608e-16 -0.128146)
(0.279206 -4.73544e-16 -0.0186244)
(-0.116013 2.39129e-16 0.0546876)
(-0.696048 0 0.164435)
(-1.14485 -4.79363e-16 0.254442)
(-1.71693 0 0.363582)
(-2.24109 -4.42434e-16 0.4625)
(-3.10335 3.71426e-16 0.628667)
(-3.70256 -3.88803e-16 0.743703)
(-4.47553 -3.54556e-16 0.891639)
(-5.69967 3.62452e-16 1.12489)
(-6.26219 2.68034e-20 1.23515)
(-7.35954 3.34663e-16 1.45901)
(-12.6062 0 2.5006)
(20.2794 -2.35049e-19 -2.77802)
(19.9855 0 -3.26039)
(19.8211 -9.52748e-19 -3.28712)
(19.2404 0 -3.38162)
(18.8437 -9.67882e-19 -3.41927)
(18.5488 -1.66767e-18 -3.40842)
(18.4318 -7.04922e-19 -3.33957)
(18.4272 0 -3.23808)
(18.4425 -1.2937e-19 -3.15023)
(18.3919 -1.32295e-18 -3.11563)
(18.2639 1.34137e-18 -3.15117)
(18.1169 1.26092e-18 -3.23195)
(18.0397 -1.10191e-18 -3.31969)
(18.0832 9.70384e-19 -3.38757)
(18.2091 1.92898e-18 -3.42173)
(18.3405 0 -3.44546)
(18.3763 -1.55737e-20 -3.46875)
(18.2764 2.98457e-18 -3.50252)
(18.1008 3.01966e-18 -3.55375)
(17.915 0 -3.58505)
(17.8169 0 -3.59671)
(17.875 8.61762e-19 -3.60005)
(18.0085 0 -3.56083)
(18.2099 -4.62791e-19 -3.54294)
(18.4332 1.32033e-18 -3.54465)
(18.5492 0 -3.51588)
(18.6967 -1.30726e-18 -3.55175)
(18.7561 0 -3.54832)
(18.7593 1.16348e-18 -3.5577)
(18.8077 2.56767e-18 -3.59836)
(18.794 3.81739e-18 -3.60103)
(18.9292 2.6239e-18 -3.63892)
(19.1044 -2.94065e-18 -3.6266)
(19.3833 -1.20179e-17 -3.63883)
(19.6294 -8.1228e-18 -3.61723)
(19.8134 0 -3.63718)
(19.9285 0 -3.64433)
(19.967 -3.22792e-20 -3.67086)
(20.0319 0 -3.69433)
(20.038 -4.21599e-18 -3.69445)
(20.0826 0 -3.75627)
(20.1107 -6.9754e-18 -3.80894)
(20.1736 0 -3.8513)
(20.2519 -2.27022e-18 -3.87822)
(20.4039 0 -3.92217)
(20.5505 -1.40778e-18 -3.93661)
(20.6799 0 -3.96041)
(20.7969 0 -3.9809)
(20.9285 3.22431e-18 -4.00436)
(20.9703 0 -3.98992)
(21.0728 0 -4.01854)
(21.2164 0 -4.02637)
(21.1582 -3.48778e-18 -4.01208)
(21.181 -5.11174e-18 -4.03726)
(21.3015 0 -4.05967)
(21.1353 0 -4.02764)
(21.1676 2.43446e-18 -4.06785)
(21.3501 9.1025e-18 -4.06695)
(21.0462 0 -4.0386)
(21.1497 0 -4.07918)
(21.272 0 -4.05735)
(20.8351 0 -4.03773)
(21.1231 -1.44193e-17 -4.06059)
(21.0445 -2.1175e-17 -4.00652)
(20.6682 -1.91076e-17 -4.02314)
(21.0308 0 -3.99503)
(20.617 0 -3.97601)
(20.5643 0 -3.98054)
(20.6595 8.17079e-20 -3.92566)
(20.2496 -2.0123e-17 -3.93363)
(20.3946 -3.04158e-17 -3.88252)
(20.059 -1.21074e-17 -3.85989)
(19.9453 -9.70575e-20 -3.8419)
(19.796 4.35752e-18 -3.77858)
(19.4634 -3.96666e-17 -3.77239)
(19.4266 0 -3.69605)
(19.0264 0 -3.6728)
(18.9184 0 -3.61759)
(18.5862 1.7348e-17 -3.57181)
(18.3687 0 -3.52869)
(18.0655 0 -3.46442)
(17.7543 8.03653e-17 -3.41702)
(17.4881 1.96353e-17 -3.33911)
(17.0455 0 -3.28969)
(16.78 0 -3.20575)
(16.2962 0 -3.1413)
(15.9547 2.24506e-16 -3.05712)
(15.4652 7.90712e-20 -2.97354)
(15.0324 1.28058e-16 -2.88381)
(14.5291 -5.41877e-17 -2.79004)
(14.012 2.69676e-16 -2.69112)
(13.4543 4.89335e-17 -2.58186)
(12.9004 2.71916e-16 -2.47637)
(12.2675 0 -2.34913)
(11.6098 0 -2.23601)
(10.9694 0 -2.09495)
(10.1715 0 -1.9574)
(9.40728 1.21867e-16 -1.80485)
(8.7119 0 -1.66674)
(7.81191 0 -1.49695)
(6.95926 -2.03696e-16 -1.33915)
(5.93336 1.07026e-16 -1.12675)
(5.01905 6.29131e-16 -0.966367)
(3.74495 -2.50546e-16 -0.712132)
(2.90435 0 -0.552406)
(1.31717 0 -0.245813)
(0.433726 0 -0.0793543)
(-1.36337 2.25538e-16 0.270213)
(-2.4794 -2.27579e-16 0.487805)
(-4.37431 0 0.841656)
(-5.76107 9.10921e-16 1.12263)
(-7.55866 3.55725e-16 1.45502)
(-9.28216 8.39418e-16 1.79706)
(-11.6187 0 2.24948)
(-13.7949 0 2.65434)
(-15.9702 -3.3562e-16 3.09771)
(-19.6388 0 3.78391)
(-21.6074 -3.10794e-16 4.16856)
(-24.5409 -3.16233e-16 4.80141)
(-39.5658 0 7.6709)
(30.4433 0 -5.49772)
(29.5723 0 -5.17392)
(29.8147 -9.74572e-19 -5.11679)
(29.3997 0 -5.18416)
(29.1921 0 -5.19978)
(29.0316 7.68894e-19 -5.14724)
(29.0209 6.68368e-19 -5.03669)
(29.0765 0 -4.91426)
(29.1156 -2.33817e-19 -4.83935)
(29.0704 1.25428e-18 -4.84873)
(28.9523 -2.73258e-18 -4.94384)
(28.8348 -1.19543e-18 -5.09169)
(28.8057 -6.88054e-20 -5.24457)
(28.9064 -9.19952e-19 -5.37575)
(29.0881 -9.15154e-19 -5.47091)
(29.2706 1.02415e-18 -5.54808)
(29.3575 -2.52636e-18 -5.61856)
(29.3118 -2.82916e-18 -5.67781)
(29.1998 0 -5.73713)
(29.0872 0 -5.7653)
(29.0607 1.49448e-18 -5.75959)
(29.1907 6.75415e-19 -5.75228)
(29.3909 0 -5.71504)
(29.6504 0 -5.69214)
(29.9379 -1.25124e-18 -5.71234)
(30.1179 0 -5.6969)
(30.332 2.46851e-18 -5.73436)
(30.4649 -8.71146e-19 -5.7615)
(30.5406 0 -5.76302)
(30.6624 -1.21488e-18 -5.82277)
(30.7279 -1.80574e-18 -5.82918)
(30.9419 0 -5.86555)
(31.1951 2.73875e-18 -5.87072)
(31.5526 5.67629e-18 -5.87822)
(31.87 1.12146e-19 -5.88701)
(32.1304 0 -5.90384)
(32.3192 0 -5.94216)
(32.438 2.13897e-18 -5.97824)
(32.5797 0 -6.06929)
(32.6675 0 -6.12815)
(32.8011 0 -6.1997)
(32.9191 0 -6.25185)
(33.0656 0 -6.31432)
(33.2318 0 -6.32467)
(33.4584 0 -6.39763)
(33.6823 1.34174e-18 -6.42461)
(33.8839 -2.33283e-18 -6.45795)
(34.0666 0 -6.49136)
(34.2505 -3.05052e-18 -6.52007)
(34.3292 0 -6.51643)
(34.4694 0 -6.54566)
(34.6438 2.40047e-19 -6.57279)
(34.6131 0 -6.55223)
(34.6534 2.41939e-18 -6.58088)
(34.7939 -5.62182e-18 -6.61774)
(34.6465 0 -6.5736)
(34.6855 -2.30114e-18 -6.60927)
(34.8725 0 -6.63758)
(34.5759 0 -6.57071)
(34.6595 0 -6.61869)
(34.7638 -1.73446e-17 -6.61941)
(34.3078 -1.11045e-17 -6.53654)
(34.5425 -1.5759e-19 -6.59208)
(34.4276 3.99925e-17 -6.53671)
(34.0022 7.85376e-20 -6.48785)
(34.2943 0 -6.51933)
(33.8338 0 -6.44135)
(33.7004 -4.37337e-17 -6.43086)
(33.7151 -6.33756e-20 -6.39871)
(33.2277 0 -6.3379)
(33.2545 0 -6.31057)
(32.8176 5.69249e-18 -6.24038)
(32.5725 -7.19526e-20 -6.2024)
(32.2786 1.17043e-20 -6.12229)
(31.8053 0 -6.06252)
(31.592 0 -5.98536)
(31.0276 -3.63742e-17 -5.90178)
(30.7434 6.29686e-17 -5.83304)
(30.225 0 -5.73998)
(29.8186 0 -5.66459)
(29.3018 0 -5.55687)
(28.7657 0 -5.46342)
(28.2602 0 -5.34809)
(27.5599 0 -5.23382)
(27.0238 0 -5.11276)
(26.2497 0 -4.97881)
(25.6076 -2.11145e-16 -4.84463)
(24.7891 -6.37629e-17 -4.69136)
(24.01 -1.20357e-16 -4.53931)
(23.154 5.09187e-17 -4.37397)
(22.244 -2.53466e-16 -4.19999)
(21.2836 -4.59627e-17 -4.01268)
(20.3083 -1.27705e-16 -3.82594)
(19.213 0 -3.61007)
(18.0887 0 -3.40302)
(16.9428 0 -3.16912)
(15.5911 0 -2.91959)
(14.2636 -1.1433e-16 -2.66039)
(13.0279 0 -2.42098)
(11.491 0 -2.12507)
(10.0192 1.9099e-16 -1.84383)
(8.21829 0 -1.48832)
(6.66781 -2.949e-16 -1.1988)
(4.45257 2.34789e-16 -0.764693)
(3.0047 0 -0.488808)
(0.244794 0 0.046126)
(-1.19843 0 0.321974)
(-4.39642 2.11227e-16 0.939837)
(-6.14068 0 1.28405)
(-9.52688 -1.93014e-16 1.91704)
(-11.8018 2.92275e-20 2.38211)
(-14.8938 -3.3292e-16 2.94685)
(-17.962 -7.85546e-16 3.57156)
(-21.4323 0 4.2341)
(-25.5679 3.44612e-16 5.00699)
(-28.8576 3.1393e-16 5.70034)
(-34.9168 3.20705e-16 6.81464)
(-38.4987 0 7.51863)
(-42.7109 2.95688e-16 8.48587)
(-66.6871 0 12.9932)
(39.0431 0 -7.48064)
(38.1173 0 -7.04201)
(38.4839 9.22338e-19 -6.97567)
(38.2746 0 -6.96372)
(38.2994 -8.60651e-19 -6.93276)
(38.3438 1.57066e-18 -6.82677)
(38.4974 0 -6.67975)
(38.6612 -1.58151e-18 -6.54861)
(38.7667 1.35311e-18 -6.49547)
(38.7715 1.70072e-18 -6.55175)
(38.712 1.38245e-18 -6.70427)
(38.6732 -1.41143e-18 -6.91046)
(38.7392 1.05366e-18 -7.11825)
(38.9415 -1.8477e-18 -7.30172)
(39.2207 0 -7.44868)
(39.4924 -1.89952e-18 -7.57153)
(39.6666 0 -7.6847)
(39.7099 0 -7.77324)
(39.6915 0 -7.84568)
(39.6787 1.96445e-18 -7.88105)
(39.7471 -1.32337e-19 -7.87046)
(39.9679 -9.45482e-20 -7.85675)
(40.2547 -4.1909e-20 -7.82814)
(40.5909 0 -7.8034)
(40.9591 0 -7.83691)
(41.2217 0 -7.84244)
(41.516 -2.30402e-18 -7.8789)
(41.7353 2.33912e-20 -7.93819)
(41.8952 0 -7.94146)
(42.0994 0 -8.01642)
(42.2542 0 -8.0349)
(42.5549 0 -8.06748)
(42.8947 -5.11554e-18 -8.09141)
(43.3384 0 -8.09445)
(43.7357 3.49911e-18 -8.1358)
(44.0807 0 -8.15706)
(44.3506 0 -8.23644)
(44.5593 -2.15795e-18 -8.27841)
(44.7922 0 -8.40123)
(44.9801 0 -8.47268)
(45.2071 3.94902e-18 -8.56268)
(45.4165 -6.28743e-18 -8.63147)
(45.6521 0 -8.71004)
(45.9027 -2.03795e-18 -8.73668)
(46.2072 0 -8.83051)
(46.5089 -2.53195e-18 -8.87172)
(46.7831 1.33307e-20 -8.9163)
(47.0353 0 -8.96385)
(47.2787 0 -8.99563)
(47.3991 1.67222e-18 -9.00868)
(47.5811 4.83294e-18 -9.03569)
(47.7914 -5.05177e-19 -9.0803)
(47.7913 0 -9.06174)
(47.8528 2.28427e-18 -9.09236)
(48.0181 5.30687e-18 -9.13753)
(47.8889 9.68944e-18 -9.09995)
(47.9382 2.14846e-18 -9.12187)
(48.1329 0 -9.17102)
(47.8394 0 -9.09347)
(47.9067 -1.70696e-18 -9.12784)
(47.9943 3.25318e-17 -9.14582)
(47.5108 1.04735e-17 -9.0365)
(47.6987 -1.29303e-19 -9.07991)
(47.5416 -1.88559e-17 -9.04253)
(47.0597 8.46951e-18 -8.94625)
(47.2863 0 -8.99219)
(46.7652 0 -8.89921)
(46.5489 4.12137e-17 -8.85241)
(46.4787 -1.55602e-17 -8.83236)
(45.8992 0 -8.72942)
(45.8065 2.71456e-17 -8.68901)
(45.2523 -5.44304e-18 -8.59968)
(44.8684 4.20322e-17 -8.52085)
(44.4175 -7.72409e-18 -8.42791)
(43.7887 0 -8.31963)
(43.3893 0 -8.22128)
(42.6417 3.42289e-17 -8.09492)
(42.1696 -1.18544e-16 -7.99298)
(41.4452 -1.54015e-17 -7.86336)
(40.8344 0 -7.74279)
(40.0838 0 -7.59599)
(39.3038 0 -7.448)
(38.539 0 -7.29084)
(37.5574 0 -7.11425)
(36.7302 0 -6.94324)
(35.6397 -7.73991e-17 -6.74481)
(34.6741 -3.37925e-20 -6.54881)
(33.4997 5.98865e-17 -6.32743)
(32.3493 0 -6.10261)
(31.1124 4.77926e-17 -5.86617)
(29.7834 1.18983e-16 -5.60785)
(28.3912 0 -5.34166)
(26.9671 -1.19888e-16 -5.0639)
(25.3816 -7.38553e-17 -4.75807)
(23.7617 0 -4.45136)
(22.0835 0 -4.11742)
(20.1516 0 -3.75335)
(18.2338 -1.07149e-16 -3.38409)
(16.4306 0 -3.03451)
(14.2333 0 -2.61217)
(12.1239 1.78963e-16 -2.20247)
(9.53017 -9.40521e-17 -1.69881)
(7.33415 0 -1.28095)
(4.15514 0 -0.662709)
(2.1219 0 -0.27259)
(-1.8589 0 0.496541)
(-3.77078 0 0.866542)
(-8.46373 5.1928e-21 1.76919)
(-10.6498 0 2.20648)
(-15.6376 1.80615e-16 3.13797)
(-18.6295 -3.98933e-16 3.75241)
(-22.9765 0 4.5454)
(-27.4438 3.30754e-20 5.45433)
(-31.5458 0 6.24719)
(-37.9147 2.32114e-20 7.43005)
(-41.8152 0 8.28219)
(-50.0221 -2.99847e-16 9.78697)
(-55.2575 0 10.7966)
(-59.9171 2.76427e-16 12.0652)
(-91.5001 0 18.0395)
(46.5069 0 -9.10119)
(45.7937 0 -8.82282)
(46.1698 0 -8.76856)
(46.1814 0 -8.70074)
(46.4234 8.13119e-19 -8.61731)
(46.6828 3.72924e-20 -8.46269)
(47.0013 0 -8.29235)
(47.2764 1.49417e-18 -8.16647)
(47.4576 0 -8.14311)
(47.5305 -3.53245e-18 -8.24141)
(47.5553 0 -8.43772)
(47.6267 1.33342e-18 -8.68435)
(47.8204 0 -8.92823)
(48.1542 1.74553e-18 -9.14599)
(48.5597 -7.88637e-19 -9.32996)
(48.9481 1.70625e-18 -9.48735)
(49.2368 -1.91079e-18 -9.63303)
(49.3959 -2.09424e-18 -9.74757)
(49.4953 0 -9.83394)
(49.6044 -1.85558e-18 -9.88003)
(49.7879 -1.21057e-18 -9.8734)
(50.1148 -9.25656e-19 -9.86013)
(50.5043 3.95644e-20 -9.84467)
(50.9319 0 -9.82641)
(51.3935 0 -9.87243)
(51.7543 0 -9.90137)
(52.1396 1.07733e-18 -9.94182)
(52.4572 7.55972e-19 -10.028)
(52.712 0 -10.0417)
(53.0071 0 -10.1288)
(53.261 -1.48219e-18 -10.1632)
(53.655 0 -10.1959)
(54.0892 9.14982e-20 -10.2377)
(54.6239 4.59966e-18 -10.2431)
(55.1078 -2.94072e-18 -10.3144)
(55.5425 0 -10.3479)
(55.9017 0 -10.4669)
(56.2081 2.03688e-18 -10.5215)
(56.5396 0 -10.6655)
(56.8327 0 -10.7472)
(57.1552 -3.72674e-18 -10.8581)
(57.4593 5.93316e-18 -10.9446)
(57.7868 0 -11.0371)
(58.1227 1.92288e-18 -11.0753)
(58.506 0 -11.1939)
(58.8887 1.19269e-18 -11.2429)
(59.2357 2.06629e-18 -11.2969)
(59.5601 0 -11.3554)
(59.8673 2.74655e-18 -11.3872)
(60.0333 -1.57701e-18 -11.4152)
(60.2588 -9.08445e-18 -11.4386)
(60.5078 2.62608e-19 -11.4976)
(60.5412 3.12767e-18 -11.4815)
(60.626 3.49213e-21 -11.5121)
(60.8178 0 -11.5633)
(60.7075 -9.1328e-18 -11.5337)
(60.7674 -2.02485e-18 -11.5393)
(60.9698 7.3372e-18 -11.6053)
(60.6774 -9.30598e-18 -11.5204)
(60.7281 1.60818e-18 -11.5353)
(60.797 -1.52335e-17 -11.5675)
(60.2819 1.02432e-17 -11.4359)
(60.4215 1.23569e-17 -11.4576)
(60.2172 0 -11.4395)
(59.6728 0 -11.2968)
(59.8304 6.31228e-18 -11.3479)
(59.2397 0 -11.245)
(58.9343 0 -11.1557)
(58.7714 7.25179e-18 -11.1441)
(58.0889 0 -11)
(57.8692 -2.55399e-17 -10.9379)
(57.1856 1.02432e-17 -10.8315)
(56.653 0 -10.7049)
(56.0334 3.61663e-18 -10.5975)
(55.236 0 -10.438)
(54.6391 0 -10.3126)
(53.6928 -3.20479e-17 -10.1436)
(53.0197 5.57346e-17 -10.0025)
(52.0739 -3.19594e-20 -9.83508)
(51.2439 0 -9.66389)
(50.2442 0 -9.47547)
(49.2048 0 -9.26818)
(48.1656 -1.63286e-17 -9.06561)
(46.8869 5.27021e-17 -8.82354)
(45.7541 0 -8.59789)
(44.3316 1.45301e-16 -8.33255)
(43.0282 9.31242e-17 -8.0701)
(41.4842 -1.12407e-16 -7.77795)
(39.9498 -1.06135e-16 -7.47656)
(38.3194 -8.96859e-17 -7.16668)
(36.5627 0 -6.82057)
(34.7291 0 -6.47409)
(32.85 1.12414e-16 -6.10228)
(30.772 6.92402e-17 -5.70609)
(28.6537 -2.10072e-16 -5.29838)
(26.4472 0 -4.86371)
(23.9437 0 -4.38614)
(21.4433 1.00391e-16 -3.90915)
(19.0844 1.71914e-16 -3.45033)
(16.2476 0 -2.905)
(13.5329 -1.67603e-16 -2.37099)
(10.18 8.80692e-17 -1.72549)
(7.39305 0 -1.18817)
(3.28671 0 -0.393163)
(0.769738 0 0.0944208)
(-4.41359 0 1.09306)
(-6.60493 0 1.52394)
(-12.8135 -1.84993e-16 2.71454)
(-15.1366 0 3.18926)
(-21.7443 0 4.42221)
(-25.146 0 5.12888)
(-30.5691 2.91489e-16 6.11687)
(-36.3771 3.43518e-16 7.29979)
(-40.443 0 8.09763)
(-49.1595 -3.01311e-16 9.71282)
(-52.984 0 10.5982)
(-62.8598 -2.80313e-16 12.4031)
(-69.5903 0 13.6768)
(-73.7295 -2.5833e-16 15.1286)
(-111.073 0 22.0994)
(52.8936 -7.50693e-19 -10.5911)
(52.5073 -7.41671e-19 -10.481)
(52.9459 7.18351e-19 -10.4514)
(53.2046 7.07077e-19 -10.3616)
(53.6513 0 -10.2372)
(54.1086 -7.49844e-19 -10.0576)
(54.5658 0 -9.89052)
(54.9315 1.99213e-18 -9.79053)
(55.1776 2.13123e-18 -9.80558)
(55.3212 3.93218e-18 -9.94124)
(55.4422 -1.91124e-18 -10.1643)
(55.6392 1.56384e-18 -10.4272)
(55.9766 0 -10.6825)
(56.4569 0 -10.9117)
(57.0031 7.43913e-19 -11.1129)
(57.5227 -6.18865e-20 -11.2905)
(57.9409 1.82272e-19 -11.4572)
(58.2323 2.17652e-19 -11.5916)
(58.4653 0 -11.6896)
(58.7109 0 -11.7464)
(59.0228 0 -11.7489)
(59.4659 6.72944e-19 -11.7409)
(59.9682 -1.39836e-19 -11.7412)
(60.4975 0 -11.735)
(61.0603 0 -11.7925)
(61.5301 -9.86793e-19 -11.8452)
(62.014 0 -11.8935)
(62.4381 0 -12.0014)
(62.7964 0 -12.0311)
(63.1894 0 -12.1274)
(63.5506 8.26439e-20 -12.1787)
(64.0436 0 -12.2142)
(64.5778 1.18606e-19 -12.2713)
(65.2066 -4.33627e-18 -12.2832)
(65.782 2.59223e-19 -12.3798)
(66.31 0 -12.4289)
(66.7636 0 -12.581)
(67.1711 0 -12.6582)
(67.6039 0 -12.8238)
(68.0035 0 -12.921)
(68.4233 0 -13.0488)
(68.8241 0 -13.1496)
(69.2452 -4.07708e-18 -13.2539)
(69.6611 -1.85105e-18 -13.3208)
(70.1318 0 -13.4187)
(70.5945 1.10899e-18 -13.4941)
(71.0138 0 -13.557)
(71.4119 0 -13.6236)
(71.7858 -5.17496e-18 -13.6534)
(72.0013 0 -13.6947)
(72.2721 4.26343e-18 -13.7145)
(72.5621 0 -13.7858)
(72.6317 -5.91353e-18 -13.7728)
(72.7419 6.24369e-21 -13.8029)
(72.9617 0 -13.8591)
(72.8714 0 -13.8381)
(72.9425 0 -13.8269)
(73.1522 -1.36678e-17 -13.9074)
(72.8604 1.75674e-17 -13.8167)
(72.8944 -1.53227e-18 -13.8097)
(72.9435 1.38101e-17 -13.8544)
(72.3953 -1.94743e-17 -13.7024)
(72.4858 1.17423e-17 -13.6986)
(72.2312 0 -13.6998)
(71.6212 0 -13.5118)
(71.7073 1.72401e-19 -13.5638)
(71.0421 0 -13.453)
(70.6441 0 -13.3188)
(70.384 6.31442e-18 -13.3137)
(69.5927 0 -13.1289)
(69.2425 0 -13.0414)
(68.4231 -9.59096e-18 -12.9187)
(67.7378 -3.70808e-17 -12.7414)
(66.9443 0 -12.619)
(65.9725 0 -12.4074)
(65.1743 0 -12.2528)
(64.0222 3.00978e-17 -12.0418)
(63.1432 0 -11.8594)
(61.9701 2.73057e-17 -11.6544)
(60.9163 -6.1226e-17 -11.4309)
(59.6642 0 -11.2005)
(58.3622 0 -10.9329)
(57.047 1.53225e-17 -10.6846)
(55.4704 -5.94249e-20 -10.3773)
(54.0328 3.11973e-17 -10.0966)
(52.2803 -6.81412e-17 -9.76543)
(50.6429 8.73713e-17 -9.43668)
(48.7363 5.27087e-17 -9.07546)
(46.826 9.95116e-17 -8.69891)
(44.8126 -3.99899e-20 -8.31816)
(42.6454 0 -7.88694)
(40.3869 -3.7987e-17 -7.46421)
(38.0756 0 -7.00215)
(35.535 0 -6.52184)
(32.9486 1.96797e-16 -6.01904)
(30.2546 0 -5.49101)
(27.2299 0 -4.90969)
(24.1947 0 -4.33548)
(21.3361 -1.60964e-16 -3.77798)
(17.9292 0 -3.12345)
(14.6966 -1.56741e-16 -2.4809)
(10.6741 0 -1.71167)
(7.41883 0 -1.07734)
(2.48318 0 -0.126743)
(-0.330632 0 0.425356)
(-6.63075 0 1.63255)
(-8.80863 -2.02201e-16 2.07236)
(-16.4785 -1.73021e-16 3.53554)
(-18.515 1.74658e-16 3.96946)
(-26.6629 0 5.48762)
(-30.0436 0 6.19807)
(-36.2136 -5.45172e-16 7.32715)
(-43.1964 0 8.73485)
(-46.4078 2.69508e-16 9.39795)
(-57.3994 0 11.4233)
(-60.3537 2.56436e-16 12.1841)
(-71.1664 2.61947e-16 14.1661)
(-79.0349 0 15.6057)
(-81.6945 -2.41357e-16 17.0964)
(-122.357 0 24.6569)
(58.2054 7.06934e-19 -12.0476)
(58.201 1.32588e-18 -12.0329)
(58.8078 -6.76622e-19 -12.0112)
(59.3391 -6.54155e-20 -11.9159)
(59.9879 6.66335e-19 -11.779)
(60.6169 0 -11.6133)
(61.1816 0 -11.4838)
(61.6163 -1.87673e-18 -11.4355)
(61.917 -4.2894e-18 -11.4975)
(62.1318 2.34976e-19 -11.6634)
(62.3558 1.80052e-18 -11.8955)
(62.6858 -1.47323e-18 -12.1501)
(63.1721 1.14797e-18 -12.3909)
(63.8009 0 -12.6072)
(64.4889 0 -12.8041)
(65.1421 -6.76832e-19 -12.985)
(65.6938 2.85879e-18 -13.1588)
(66.1241 3.08597e-18 -13.304)
(66.4974 0 -13.4094)
(66.8851 0 -13.475)
(67.3312 0 -13.4888)
(67.8937 -9.45285e-20 -13.4891)
(68.5123 3.06252e-19 -13.5054)
(69.1478 -4.14804e-19 -13.5147)
(69.8145 -9.74906e-19 -13.5824)
(70.3981 1.79821e-18 -13.6574)
(70.9845 -7.88692e-19 -13.716)
(71.5188 -5.32599e-19 -13.8403)
(71.986 -5.85949e-19 -13.8891)
(72.4815 0 -13.9921)
(72.955 1.23812e-18 -14.0595)
(73.5506 -1.62623e-18 -14.0995)
(74.1884 1.92389e-18 -14.1691)
(74.9125 3.46397e-18 -14.1909)
(75.5818 4.42632e-18 -14.3083)
(76.2042 0 -14.3755)
(76.7549 0 -14.5547)
(77.2652 -2.1813e-18 -14.6569)
(77.8002 0 -14.843)
(78.3064 3.40418e-18 -14.9566)
(78.824 3.38212e-18 -15.0979)
(79.3215 0 -15.2111)
(79.8329 7.68878e-18 -15.3252)
(80.3349 1.74207e-18 -15.4239)
(80.8955 0 -15.4881)
(81.4306 -1.04353e-18 -15.5926)
(81.9264 -1.77643e-18 -15.6642)
(82.4002 0 -15.7365)
(82.8437 4.86661e-18 -15.762)
(83.1131 -1.36613e-18 -15.8144)
(83.4326 -3.91571e-18 -15.8309)
(83.7672 0 -15.9124)
(83.8775 -9.01806e-21 -15.903)
(84.017 -3.84015e-18 -15.9316)
(84.2677 0 -15.992)
(84.2005 0 -15.9794)
(84.2851 1.88454e-18 -15.9514)
(84.5038 6.35753e-18 -16.0439)
(84.2151 -1.65974e-17 -15.9484)
(84.2349 1.44036e-18 -15.9177)
(84.2663 -1.29809e-17 -15.9727)
(83.6878 9.24559e-18 -15.8016)
(83.7311 -2.2054e-17 -15.77)
(83.4278 0 -15.7898)
(82.7541 0 -15.5578)
(82.7695 -1.16503e-17 -15.6083)
(82.0309 0 -15.4905)
(81.5422 0 -15.3105)
(81.1855 -5.93064e-18 -15.3107)
(80.2875 0 -15.0855)
(79.8094 -2.27027e-17 -14.9709)
(78.8557 8.14549e-20 -14.8325)
(78.0223 3.48119e-17 -14.6035)
(77.0583 0 -14.4664)
(75.9159 0 -14.2029)
(74.9223 0 -14.0188)
(73.5676 2.80833e-17 -13.7673)
(72.4878 0 -13.5438)
(71.0933 -1.28402e-17 -13.3027)
(69.8225 1.14792e-16 -13.0272)
(68.3281 0 -12.7565)
(66.7739 0 -12.4299)
(65.196 0 -12.138)
(63.3372 -8.31379e-20 -11.768)
(61.6123 -2.92466e-17 -11.4351)
(59.5503 -6.38448e-17 -11.0419)
(57.6017 -8.18879e-17 -10.6506)
(55.3612 4.94666e-17 -10.2254)
(53.1054 0 -9.7792)
(50.7432 3.94304e-17 -9.3341)
(48.2094 0 -8.82524)
(45.57 3.5581e-17 -8.33506)
(42.8792 0 -7.792)
(39.9392 0 -7.23967)
(36.9488 0 -6.65379)
(33.8458 -7.67379e-17 -6.04674)
(30.3933 -1.52378e-16 -5.37888)
(26.9141 0 -4.72583)
(23.6572 1.50608e-16 -4.08869)
(19.7995 -6.68756e-17 -3.34766)
(16.1931 1.46659e-16 -2.62239)
(11.6473 -7.74209e-17 -1.75834)
(8.11672 0 -1.06159)
(2.51157 0 0.0115312)
(-0.325964 0 0.580348)
(-7.59071 0 1.96221)
(-9.36061 1.89076e-16 2.3417)
(-18.3638 7.66523e-21 4.04757)
(-19.5827 -3.26633e-16 4.34383)
(-29.0935 0 6.11307)
(-31.9251 0 6.72119)
(-38.3756 2.5484e-16 7.91415)
(-46.2712 0 9.48049)
(-47.7229 -2.51856e-16 9.85001)
(-60.7161 0 12.2319)
(-62.0126 -4.79191e-16 12.7087)
(-72.8335 0 14.7106)
(-81.3035 0 16.1893)
(-81.7224 2.25465e-16 17.6335)
(-122.871 0 25.2089)
(62.5031 0 -13.5025)
(62.9012 -5.90142e-19 -13.4954)
(63.7523 0 -13.4538)
(64.558 -5.65083e-19 -13.3625)
(65.4002 -1.25807e-18 -13.2479)
(66.1765 0 -13.138)
(66.8295 9.63244e-19 -13.0803)
(67.3243 0 -13.1045)
(67.6836 -1.78732e-19 -13.2192)
(67.9804 -4.3258e-18 -13.4064)
(68.3183 0 -13.6291)
(68.7871 0 -13.8531)
(69.4215 -1.08018e-18 -14.0567)
(70.1931 0 -14.2391)
(71.0153 0 -14.412)
(71.7958 0 -14.5795)
(72.4763 -1.2539e-18 -14.7464)
(73.0433 -1.34568e-18 -14.8918)
(73.5555 -1.05185e-18 -14.9989)
(74.083 0 -15.0698)
(74.6617 0 -15.0952)
(75.3406 -1.63595e-19 -15.1049)
(76.0724 -1.64211e-19 -15.136)
(76.8129 3.90227e-19 -15.1621)
(77.5807 9.17127e-19 -15.2381)
(78.2771 -1.5525e-18 -15.3321)
(78.9657 1.01866e-19 -15.4022)
(79.6091 5.0099e-19 -15.5373)
(80.1866 5.51159e-19 -15.6056)
(80.7857 0 -15.7125)
(81.3728 0 -15.7936)
(82.0719 1.52957e-18 -15.839)
(82.8133 0 -15.9182)
(83.6312 -3.25785e-18 -15.9516)
(84.394 -1.93766e-18 -16.086)
(85.1098 3.88463e-19 -16.1728)
(85.7575 0 -16.3735)
(86.3701 2.05124e-18 -16.4998)
(87.0064 3.13925e-18 -16.7033)
(87.6178 7.33553e-20 -16.833)
(88.2319 -6.39138e-18 -16.9849)
(88.8246 0 -17.1083)
(89.4255 -3.62108e-18 -17.2295)
(90.0171 0 -17.3342)
(90.6579 0 -17.4093)
(91.2699 0 -17.5187)
(91.8429 2.15043e-20 -17.5977)
(92.3946 0 -17.6725)
(92.9099 -2.28554e-18 -17.6915)
(93.2379 2.56415e-18 -17.7524)
(93.61 3.67974e-18 -17.7659)
(93.9937 0 -17.855)
(94.15 2.63193e-18 -17.8495)
(94.3233 3.62526e-18 -17.8759)
(94.6088 0 -17.9395)
(94.5695 0 -17.935)
(94.6709 -1.7703e-18 -17.8905)
(94.902 -5.64965e-18 -17.9923)
(94.6212 7.81021e-18 -17.8929)
(94.6314 -1.21075e-18 -17.8377)
(94.6496 0 -17.9009)
(94.0474 0 -17.7124)
(94.0482 7.11342e-20 -17.6519)
(93.7019 1.38621e-17 -17.6895)
(92.9706 0 -17.4162)
(92.9192 5.54875e-18 -17.4632)
(92.1139 0 -17.3398)
(91.541 0 -17.1148)
(91.0934 0 -17.1198)
(90.0975 0 -16.8557)
(89.5005 -1.48493e-20 -16.7139)
(88.4213 1.28331e-19 -16.5614)
(87.452 -3.23573e-17 -16.2816)
(86.3294 0 -16.1315)
(85.0293 -2.69819e-17 -15.8181)
(83.856 0 -15.6065)
(82.312 -2.63337e-17 -15.3179)
(81.0463 4.60672e-17 -15.0556)
(79.4476 -1.2284e-17 -14.7819)
(77.9781 -5.37692e-17 -14.4576)
(76.2649 0 -14.1505)
(74.4829 5.49195e-17 -13.7691)
(72.6705 0 -13.4389)
(70.562 -4.3311e-17 -13.0121)
(68.5844 -2.75608e-17 -12.6333)
(66.2529 5.981e-17 -12.1857)
(64.0357 0 -11.7398)
(61.5124 -9.27272e-17 -11.2602)
(58.9649 0 -10.7546)
(56.3127 3.70761e-17 -10.2567)
(53.4846 0 -9.68337)
(50.5372 3.35037e-17 -9.14032)
(47.5503 0 -8.53196)
(44.309 5.74469e-17 -7.92663)
(41.0147 -1.72078e-16 -7.27692)
(37.6194 7.18112e-17 -6.61317)
(33.8766 1.42581e-16 -5.88467)
(30.0878 0 -5.17983)
(26.58 -2.81731e-16 -4.49154)
(22.4383 1.25275e-16 -3.69684)
(18.6567 0 -2.92564)
(13.7867 7.24069e-17 -2.00692)
(10.2381 0 -1.29487)
(4.17724 0 -0.144598)
(1.66359 -1.91801e-16 0.379286)
(-6.35945 0 1.88842)
(-7.24706 0 2.12412)
(-17.3973 1.51208e-16 4.02801)
(-17.2001 3.05402e-16 4.07638)
(-27.8193 1.3799e-16 6.04746)
(-29.5343 0 6.43301)
(-35.712 0 7.60229)
(-44.2044 0 9.23869)
(-43.0177 0 9.1652)
(-57.5711 2.45903e-16 11.8169)
(-56.5759 2.23819e-16 11.8671)
(-66.4166 0 13.7271)
(-74.8643 0 15.1007)
(-72.6601 0 16.4138)
(-111.419 0 23.4964)
(65.8895 5.6668e-19 -14.9714)
(66.6781 0 -14.8991)
(67.7796 4.64444e-19 -14.8241)
(68.8268 0 -14.7488)
(69.8393 5.93178e-19 -14.6852)
(70.7414 0 -14.6589)
(71.479 -9.05365e-19 -14.6935)
(72.0459 2.17397e-18 -14.7973)
(72.4869 4.42862e-18 -14.9607)
(72.8912 -6.44578e-21 -15.1573)
(73.362 0 -15.3547)
(73.9778 0 -15.5312)
(74.7581 0 -15.6807)
(75.6636 0 -15.8132)
(76.6081 0 -15.9469)
(77.5045 0 -16.0872)
(78.304 8.03467e-19 -16.2351)
(78.9992 -8.51911e-19 -16.3709)
(79.6432 9.88633e-19 -16.4736)
(80.3022 0 -16.5453)
(81.0059 0 -16.58)
(81.7934 2.39291e-20 -16.5989)
(82.6299 -1.90945e-19 -16.6418)
(83.4696 -3.23918e-19 -16.6836)
(84.3314 0 -16.7653)
(85.1345 6.9086e-19 -16.8732)
(85.921 1.08006e-18 -16.9542)
(86.668 -2.84992e-19 -17.094)
(87.3525 0 -17.1796)
(88.0524 0 -17.2879)
(88.7501 0 -17.3785)
(89.5497 -1.12068e-18 -17.4289)
(90.3911 0 -17.5141)
(91.2979 0 -17.5596)
(92.1505 -1.10939e-18 -17.7067)
(92.9556 -3.64947e-19 -17.8127)
(93.6972 0 -18.0292)
(94.4088 2.26185e-18 -18.1773)
(95.143 -5.98817e-18 -18.3942)
(95.8559 -3.0758e-18 -18.5387)
(96.5627 3.01657e-18 -18.6977)
(97.2472 0 -18.8288)
(97.9351 0 -18.9539)
(98.613 0 -19.061)
(99.3313 2.84723e-20 -19.1456)
(100.019 0 -19.2582)
(100.669 1.54785e-18 -19.3436)
(101.3 1.97318e-18 -19.4173)
(101.888 0 -19.4271)
(102.278 -1.2021e-18 -19.4937)
(102.706 0 -19.5043)
(103.143 0 -19.5983)
(103.35 2.44386e-18 -19.5966)
(103.562 1.02736e-20 -19.62)
(103.886 -3.35133e-18 -19.6855)
(103.88 0 -19.6883)
(104.002 0 -19.628)
(104.249 5.30227e-18 -19.7361)
(103.983 0 -19.6339)
(103.989 1.13613e-18 -19.5537)
(104.001 0 -19.6229)
(103.385 0 -19.4191)
(103.35 1.91529e-17 -19.3296)
(102.97 -2.56305e-17 -19.3838)
(102.191 4.79336e-18 -19.0729)
(102.08 0 -19.1152)
(101.22 0 -18.9881)
(100.574 1.42993e-17 -18.7201)
(100.047 -4.01676e-18 -18.7296)
(98.9685 0 -18.4299)
(98.2678 1.99857e-17 -18.262)
(97.0798 3.75284e-18 -18.0979)
(95.9949 3.0333e-17 -17.7702)
(94.7347 1.99067e-18 -17.6099)
(93.2992 2.52894e-17 -17.2508)
(91.9727 0 -17.0153)
(90.2638 0 -16.6947)
(88.8378 -4.31659e-17 -16.3984)
(87.0648 2.32079e-17 -16.0978)
(85.4271 0 -15.7303)
(83.5334 0 -15.3936)
(81.5632 -5.14415e-17 -14.9646)
(79.5607 0 -14.6044)
(77.2534 0 -14.1302)
(75.0765 2.58081e-17 -13.7156)
(72.5363 5.597e-17 -13.2251)
(70.1143 0 -12.7365)
(67.3831 4.34338e-17 -12.2164)
(64.6225 0 -11.6664)
(61.7646 -3.47017e-17 -11.1324)
(58.7429 8.56166e-17 -10.5132)
(55.5899 -3.13522e-17 -9.93735)
(52.4202 -8.60489e-17 -9.28538)
(49.0094 3.20068e-19 -8.65237)
(45.5452 1.60982e-16 -7.96456)
(42.0083 0 -7.27322)
(38.1516 -1.33279e-16 -6.51715)
(34.2271 7.70644e-17 -5.79481)
(30.6537 1.31708e-16 -5.0912)
(26.4326 -1.17501e-16 -4.28309)
(22.7153 0 -3.51032)
(17.7576 6.8041e-17 -2.58464)
(14.4926 0 -1.91189)
(8.22268 0 -0.737184)
(6.42365 1.7928e-16 -0.326264)
(-2.12413 0 1.25576)
(-1.62354 0 1.26071)
(-12.7081 -1.41274e-16 3.31122)
(-10.4991 6.7303e-20 3.00321)
(-21.9389 -1.00408e-20 5.12214)
(-22.0142 -1.42244e-16 5.1703)
(-27.3685 0 6.23495)
(-36.1509 2.61373e-16 7.85152)
(-31.6293 2.2012e-16 7.21906)
(-47.2144 -2.29692e-16 10.0454)
(-43.5903 -2.09015e-16 9.57617)
(-51.6023 0 11.1607)
(-59.4749 -1.93616e-16 12.3109)
(-54.6883 0 13.4916)
(-88.7413 0 19.6435)
(68.4932 -5.3192e-19 -16.4955)
(69.6117 5.27126e-19 -16.3251)
(70.8985 7.85279e-20 -16.2227)
(72.1256 5.61716e-19 -16.17)
(73.2734 0 -16.1654)
(74.2857 -8.04636e-19 -16.2217)
(75.1174 9.36061e-19 -16.3398)