/*--------------------------------*- C++ -*----------------------------------*\
| =========                 |                                                 |
| \\      /  F ield         | OpenFOAM: The Open Source CFD Toolbox           |
|  \\    /   O peration     | Version:  2412                                  |
|   \\  /    A nd           | Website:  www.openfoam.com                      |
|    \\/     M anipulation  |                                                 |
\*---------------------------------------------------------------------------*/
FoamFile
{
    version     2.0;
    format      ascii;
    arch        "LSB;label=32;scalar=64";
    class       surfaceScalarField;
    location    "0.15";
    object      phi_0;
}
// * * * * * * * * * * * * * * * * * * * * * * * * * * * * * * * * * * * * * //

dimensions      [0 3 -1 0 0 0 0];

oriented        oriented;

internalField   nonuniform List<scalar> 
24930
(
0.0199851
0.0238657
-0.0438508
0.00870174
0.0112834
0.00421176
0.00448999
0.00247299
0.00173877
0.00168802
0.000784967
0.00123106
0.000456961
0.000922964
0.000308096
0.000699429
0.000223534
0.000530767
0.000168662
0.000400332
0.000130435
0.000296466
0.000103866
0.00021259
8.38762e-05
0.000143946
6.86438e-05
8.70947e-05
5.68517e-05
3.95666e-05
4.75281e-05
3.52837e-08
3.95313e-05
-3.4675e-05
3.47103e-05
-6.40943e-05
2.94193e-05
-8.94611e-05
2.53668e-05
-0.000110864
2.14026e-05
-0.000129842
1.89781e-05
-0.000146369
1.65276e-05
-0.00016082
1.44506e-05
-0.000173654
1.28335e-05
-0.000184852
1.1198e-05
-0.000195262
1.04102e-05
-0.000203744
8.4825e-06
-0.00021203
8.28575e-06
-0.000219044
7.01431e-06
-0.000225596
6.55192e-06
-0.000231268
5.67203e-06
-0.000236423
5.15512e-06
-0.000240961
4.53756e-06
-0.000244978
4.01752e-06
-0.000248488
3.50945e-06
-0.000250768
2.28003e-06
-0.000251704
9.3653e-07
-0.00025027
-1.43478e-06
-0.000247014
-3.25613e-06
-0.000243871
-3.14248e-06
-0.00024426
3.88609e-07
-0.00025225
7.99049e-06
-0.000268818
1.65675e-05
-0.000289705
2.08874e-05
-0.000301217
1.15116e-05
-0.000283302
-1.79145e-05
-0.000213177
-7.01246e-05
-8.00124e-05
-0.000133165
9.18761e-05
-0.000171889
0.000252681
-0.000160805
0.000357162
-0.000104482
0.000363572
-6.41015e-06
0.0002298
0.000133772
-8.02789e-05
0.000310079
-0.000530128
0.000449849
-0.00104655
0.000516418
-0.00149161
0.000445062
-0.00170312
0.000211509
-0.00158522
-0.000117901
-0.00120489
-0.000380323
-0.000737396
-0.000467498
-0.000338708
-0.000398688
-7.17104e-05
-0.000266998
8.16526e-05
-0.000153363
0.000146723
-6.50701e-05
0.00015401
-7.28725e-06
0.00013001
2.39996e-05
9.66013e-05
3.34091e-05
6.78871e-05
2.87142e-05
5.07016e-05
1.71855e-05
4.29582e-05
7.74338e-06
3.85567e-05
4.40145e-06
3.3587e-05
4.96972e-06
2.64515e-05
7.13558e-06
1.7658e-05
8.79337e-06
8.83132e-06
8.82675e-06
1.9134e-06
6.91786e-06
-2.11926e-06
4.03237e-06
-1.71171e-06
-4.07697e-07
3.41717e-06
-5.12891e-06
1.34333e-05
-1.00162e-05
2.84944e-05
-1.5061e-05
4.78756e-05
-1.93813e-05
7.06905e-05
-2.28149e-05
9.58267e-05
-2.51362e-05
0.000122369
-2.65421e-05
0.000149279
-2.69106e-05
0.000176037
-2.67578e-05
0.000202016
-2.59784e-05
0.000227481
-2.54657e-05
0.000252362
-2.48803e-05
0.00027739
-2.50287e-05
0.000302699
-2.53088e-05
0.000329816
-2.71166e-05
0.000359538
-2.97225e-05
0.000393536
-3.39982e-05
0.000431321
-3.77849e-05
0.000473326
-4.20044e-05
0.000518243
-4.4917e-05
0.000567182
-4.89389e-05
0.000619388
-5.22068e-05
0.000676825
-5.74369e-05
0.000738477
-6.16514e-05
0.000806664
-6.8187e-05
0.00087967
-7.30066e-05
0.000960641
-8.0971e-05
0.00104687
-8.62259e-05
0.00114319
-9.63226e-05
0.0012451
-0.000101911
0.00136046
-0.000115357
0.00148187
-0.000121411
0.00162176
-0.000139888
0.00176962
-0.000147864
0.00194188
-0.000172258
0.00213199
-0.000190109
0.00234276
-0.000210768
0.00265269
-0.000309933
0.00289541
-0.000242723
0.0037275
-0.000832092
-0.00084072
0.040869
0.0330283
-0.0500316
0.0287169
0.0234356
0.018972
0.0142348
0.0126916
0.00801917
0.0089065
0.0045701
0.00656591
0.00279755
0.00500655
0.00186746
0.00389515
0.00133493
0.00306493
0.000998885
0.0024233
0.000772058
0.00191599
0.000611177
0.00150682
0.000493046
0.00117162
0.000403849
0.000893535
0.000334935
0.000660424
0.000280639
0.000463397
0.000236559
0.000296038
0.000202069
0.000153107
0.00017235
3.26336e-05
0.00014584
-7.90023e-05
0.000133038
-0.000177069
0.000117045
-0.000261757
0.000101216
-0.000335716
8.84098e-05
-0.000401024
7.81413e-05
-0.000458434
6.86082e-05
-0.000510223
6.21987e-05
-0.000554988
5.3248e-05
-0.00059607
4.93671e-05
-0.00063222
4.31652e-05
-0.000664938
3.92695e-05
-0.000693851
3.45848e-05
-0.000719732
3.10358e-05
-0.000742623
2.74294e-05
-0.000762745
2.41394e-05
-0.000780076
2.084e-05
-0.000792743
1.49469e-05
-0.000800238
8.43206e-06
-0.000800131
-1.54148e-06
-0.000794237
-9.15033e-06
-0.000789027
-8.35255e-06
-0.000795326
6.68701e-06
-0.000824222
3.68871e-05
-0.000877106
6.94513e-05
-0.00093651
8.0292e-05
-0.000957299
3.23e-05
-0.000877893
-9.73204e-05
-0.000631807
-0.00031621
-0.000192176
-0.000572796
0.000349507
-0.000713571
0.000840495
-0.000651793
0.00112211
-0.000386095
0.0010532
6.24963e-05
0.000499458
0.000687516
-0.000586471
0.00139601
-0.00207224
0.00193562
-0.00367128
0.00211545
-0.0049402
0.00171399
-0.00541606
0.000687369
-0.00489895
-0.000635006
-0.00364637
-0.0016329
-0.00217911
-0.00193476
-0.000944088
-0.00163371
-0.000112127
-0.00109896
0.000351795
-0.000617285
0.000545162
-0.000258437
0.000559001
-2.11261e-05
0.0004791
0.000103901
0.000374129
0.00013838
0.000287907
0.000114936
0.000237958
6.71342e-05
0.000215993
2.97086e-05
0.000203922
1.64727e-05
0.000190229
1.86624e-05
0.000171012
2.63532e-05
0.000148416
3.13892e-05
0.000127543
2.96997e-05
0.000113908
2.05526e-05
0.00011217
5.7707e-06
0.000125569
-1.3807e-05
0.000155765
-3.53249e-05
0.000202851
-5.71016e-05
0.000265683
-7.78936e-05
0.000341917
-9.56148e-05
0.00042858
-0.000109478
0.000522225
-0.000118781
0.000619882
-0.000124199
0.000718644
-0.000125673
0.000816864
-0.000124978
0.000913279
-0.000122393
0.00100871
-0.000120895
0.00110377
-0.000119945
0.00120062
-0.000121872
0.00130083
-0.00012552
0.00140899
-0.000135285
0.00152871
-0.000149439
0.00166422
-0.000169511
0.00181485
-0.00018841
0.00198077
-0.000207923
0.00215936
-0.000223514
0.00235299
-0.000242567
0.00256121
-0.000260419
0.00278865
-0.000284877
0.00303446
-0.000307464
0.00330384
-0.000337564
0.00359464
-0.000363807
0.00391337
-0.00039971
0.00425695
-0.000429805
0.0046339
-0.000473271
0.00504073
-0.000508744
0.00548757
-0.000562188
0.00597329
-0.00060714
0.00650738
-0.000673978
0.0070968
-0.000737275
0.00774869
-0.000824148
0.00848427
-0.000925691
0.009298
-0.0010245
0.0103794
-0.00139129
0.0113375
-0.00120084
0.0140769
-0.00357154
-0.00348996
0.0516626
0.034689
-0.0533233
0.0444542
0.030644
0.0352047
0.0234843
0.0266907
0.0165332
0.0200798
0.011181
0.0153163
0.00756104
0.0119169
0.00526685
0.00943228
0.00381954
0.00755634
0.00287483
0.00609912
0.00222927
0.00494103
0.00176927
0.00400388
0.0014302
0.00323421
0.00117352
0.00259419
0.000974955
0.00205638
0.000818446
0.00160034
0.000692595
0.00121111
0.000591306
0.000876177
0.00050728
0.00058657
0.000435448
0.000336569
0.00038304
0.000119141
0.000334473
-7.25177e-05
0.000292874
-0.000245394
0.000261287
-0.000396803
0.00022955
-0.000530364
0.000202169
-0.000650093
0.000181929
-0.000755044
0.000158199
-0.000849999
0.000144322
-0.000934325
0.000127491
-0.00101016
0.000115102
-0.00107756
0.000101991
-0.00113775
9.12183e-05
-0.00119114
8.08226e-05
-0.0012381
7.10999e-05
-0.0012787
6.14397e-05
-0.00131017
4.64135e-05
-0.00133104
2.93057e-05
-0.00133928
6.69604e-06
-0.00133737
-1.10609e-05
-0.00133666
-9.06447e-06
-0.00135424
2.42708e-05
-0.00140753
9.01774e-05
-0.00149544
0.000157363
-0.00158578
0.000170633
-0.0016034
4.99212e-05
-0.00144749
-0.000253237
-0.00101261
-0.000751085
-0.000265476
-0.00131993
0.000643625
-0.00162267
0.00144099
-0.00144916
0.00184633
-0.000791437
0.00161947
0.00028936
0.000537708
0.00176928
-0.00142059
0.00335431
-0.0039918
0.00450683
-0.0066018
0.00472545
-0.00852132
0.00363351
-0.00907247
0.00123852
-0.00804117
-0.0016663
-0.00588557
-0.0037885
-0.00344091
-0.00437942
-0.00140052
-0.0036741
-2.60306e-05
-0.00247345
0.000737796
-0.00138111
0.00104663
-0.000567268
0.00105906
-3.356e-05
0.00092073
0.000242231
0.000746376
0.000312735
0.000607045
0.000254267
0.000528566
0.000145613
0.000495725
6.25496e-05
0.000479073
3.31247e-05
0.000460357
3.73789e-05
0.000434083
5.26267e-05
0.000404555
6.09171e-05
0.000380528
5.37268e-05
0.000371366
2.97148e-05
0.000384724
-7.58741e-06
0.000425912
-5.49941e-05
0.000497107
-0.00010652
0.000598167
-0.000158162
0.00072643
-0.000206157
0.000877404
-0.000246588
0.00104574
-0.000277817
0.00122548
-0.000298519
0.00141165
-0.000310368
0.00159957
-0.00031359
0.0017868
-0.000312214
0.00197176
-0.000307351
0.00215633
-0.000305465
0.00234214
-0.000305755
0.00253331
-0.000313039
0.00273328
-0.000325488
0.00295035
-0.000352354
0.00319101
-0.000390103
0.00346227
-0.000440774
0.0037629
-0.000489039
0.00409307
-0.00053809
0.00444874
-0.000579183
0.00483416
-0.000627991
0.00524912
-0.00067538
0.00570174
-0.000737493
0.00619104
-0.000796761
0.0067261
-0.000872626
0.00730383
-0.000941542
0.00793559
-0.00103147
0.00861689
-0.00111111
0.00936207
-0.00121845
0.010167
-0.00131369
0.0110469
-0.00144204
0.0120049
-0.00156514
0.0130496
-0.00171871
0.0142062
-0.00189391
0.0154682
-0.00208612
0.0168987
-0.00235621
0.0184561
-0.00258192
0.0204916
-0.0034267
0.0222758
-0.00298509
0.0270221
-0.00831781
-0.00803423
0.0576848
0.0336846
-0.0566805
0.0551263
0.0332025
0.0491258
0.0294849
0.0414686
0.0241904
0.0338604
0.0187892
0.0272733
0.0141481
0.0219621
0.010578
0.017791
0.00799071
0.0145155
0.00615026
0.0119149
0.00482997
0.00982059
0.00386353
0.00811087
0.00313992
0.00669781
0.00258658
0.00551737
0.0021554
0.00452198
0.00181384
0.00367566
0.00153892
0.00295127
0.0013157
0.00232699
0.00113156
0.00178591
0.00097653
0.00131645
0.000852499
0.00090563
0.000745288
0.000545404
0.000653101
0.000229146
0.000577544
-4.84007e-05
0.000507096
-0.000303072
0.00045684
-0.000527837
0.000406694
-0.000725887
0.000356248
-0.000903994
0.000322429
-0.00106257
0.000286065
-0.00120487
0.000257404
-0.00133165
0.000228775
-0.00144488
0.000204441
-0.00154545
0.000181394
-0.00163407
0.000159728
-0.00171112
0.000138489
-0.00177322
0.000108513
-0.0018195
7.558e-05
-0.00184527
3.24697e-05
-0.00185685
5.20562e-07
-0.00186865
2.73643e-06
-0.00190468
6.02972e-05
-0.00198463
0.00017013
-0.00210599
0.000278716
-0.00222089
0.000285539
-0.00222672
5.57478e-05
-0.00198753
-0.000492422
-0.00136404
-0.00137458
-0.000317713
-0.00236626
0.000938761
-0.00287915
0.00201644
-0.00252684
0.00249828
-0.00127328
0.00203253
0.000755106
0.000312403
0.00348941
-0.00257589
0.0062426
-0.0062143
0.00814525
-0.00972544
0.00823659
-0.0121165
0.00602458
-0.0125828
0.00170484
-0.0109593
-0.00328984
-0.00790477
-0.00684303
-0.00451871
-0.00776548
-0.0017022
-0.00649062
0.0001943
-0.00436995
0.00125443
-0.00244124
0.00167395
-0.000986791
0.0016818
-4.14084e-05
0.00148451
0.000439516
0.00124319
0.000554058
0.00105516
0.000442299
0.000952913
0.000247858
0.00091377
0.000101692
0.000897512
4.93831e-05
0.000880017
5.4874e-05
0.000854851
7.77923e-05
0.000828763
8.70051e-05
0.000814463
6.80271e-05
0.000824604
1.95734e-05
0.0008697
-5.26829e-05
0.000956435
-0.000141729
0.00108781
-0.000237898
0.00126249
-0.000332837
0.00147606
-0.000419733
0.0017217
-0.000492228
0.00199156
-0.000547673
0.00227718
-0.000584138
0.00257168
-0.000604873
0.00286889
-0.000610793
0.00316584
-0.00060917
0.0034611
-0.000602613
0.00375796
-0.00060232
0.00405956
-0.000607357
0.00437234
-0.000625813
0.00470226
-0.000655412
0.00506165
-0.000711742
0.00546028
-0.000788734
0.00590764
-0.00088814
0.00640211
-0.000983502
0.00694364
-0.00107962
0.00752735
-0.0011629
0.00815937
-0.00126001
0.00884043
-0.00135644
0.00958199
-0.00147905
0.0103838
-0.00159853
0.0112585
-0.00174732
0.0122031
-0.00188622
0.0132333
-0.00206164
0.0143451
-0.00222286
0.0155565
-0.00242985
0.0168671
-0.0026243
0.018291
-0.00286597
0.0198462
-0.00312038
0.0215254
-0.00339787
0.0233939
-0.00376245
0.0254031
-0.00409525
0.0276907
-0.00464381
0.0301457
-0.00503696
0.0332938
-0.00657482
0.0360562
-0.00574746
0.0428292
-0.0150908
-0.0145233
0.0616122
0.0322938
-0.0602213
0.0616691
0.0331455
0.0590703
0.0320837
0.0540598
0.0292008
0.0476373
0.0252118
0.0408782
0.0209072
0.0345335
0.0169227
0.0289638
0.0135604
0.0242466
0.0108674
0.0203121
0.00876447
0.0170408
0.00713486
0.0143127
0.00586807
0.0120245
0.00487473
0.0100927
0.00408715
0.00845115
0.00345544
0.00704736
0.0029427
0.00584024
0.00252282
0.00479648
0.00217532
0.00388933
0.00188368
0.00309911
0.00164272
0.00240669
0.0014377
0.00179799
0.0012618
0.00126118
0.00111436
0.000786159
0.000982113
0.000366225
0.000876775
2.51447e-07
0.000772667
-0.00034505
0.000701549
-0.000647329
0.000624708
-0.000916263
0.000554998
-0.00115733
0.000498468
-0.0013725
0.000443949
-0.00156479
0.000396731
-0.00173592
0.000352518
-0.00188717
0.000310985
-0.0020196
0.000270914
-0.00212948
0.000218397
-0.00221547
0.000161571
-0.00227549
9.24895e-05
-0.00231337
3.83968e-05
-0.0023496
3.89636e-05
-0.00241108
0.000121785
-0.00252133
0.000280374
-0.00267417
0.000431556
-0.00280902
0.000420388
-0.00279923
4.59587e-05
-0.00248097
-0.000810684
-0.00168672
-0.00216882
-0.000371909
-0.00368107
0.00119799
-0.00444905
0.00252143
-0.00385027
0.00303115
-0.001783
0.00225388
0.00153237
-0.000171404
0.0059147
-0.00402165
0.0100928
-0.00865661
0.0127802
-0.0129014
0.0124814
-0.015562
0.00868524
-0.0158005
0.00194325
-0.013552
-0.00553832
-0.00963861
-0.0107564
-0.00536931
-0.0120348
-0.00181606
-0.0100439
0.000586318
-0.00677232
0.00193175
-0.00378667
0.00245823
-0.00151327
0.00246077
-4.39533e-05
0.00220663
0.000693653
0.00190294
0.000857755
0.00167201
0.000673227
0.00155191
0.000367957
0.00151266
0.000140944
0.00150413
5.7911e-05
0.00149689
6.21166e-05
0.0014841
9.05799e-05
0.00147536
9.57398e-05
0.00148656
5.68299e-05
0.00153403
-2.78921e-05
0.00163038
-0.000149034
0.00178441
-0.000295759
0.00199839
-0.000451874
0.00226987
-0.000604325
0.00259236
-0.000742215
0.00295642
-0.000856292
0.00335164
-0.000942891
0.00376705
-0.000999555
0.00419407
-0.00103189
0.00462518
-0.0010419
0.00505735
-0.00104134
0.00548962
-0.00103488
0.00592721
-0.00103992
0.00637512
-0.00105526
0.0068427
-0.0010934
0.00733883
-0.00115153
0.00788044
-0.00125336
0.00848055
-0.00138885
0.00915138
-0.00155897
0.00989054
-0.00172266
0.0106983
-0.00188736
0.0115687
-0.00203329
0.0125106
-0.0022019
0.0135253
-0.00237119
0.0146287
-0.00258245
0.0158206
-0.00279044
0.0171186
-0.00304535
0.0185192
-0.00328672
0.0200436
-0.00358605
0.021687
-0.00386632
0.0234738
-0.00421663
0.0254048
-0.00455527
0.0274962
-0.00495742
0.0297777
-0.00540189
0.0322289
-0.00584899
0.0349536
-0.00648722
0.0378577
-0.00699928
0.0411658
-0.00795194
0.0446616
-0.00853279
0.049114
-0.0110272
0.0529666
-0.00960003
0.0617337
-0.0238579
-0.0229091
0.0650264
0.0312086
-0.0639412
0.0659667
0.0322052
0.0655907
0.0324596
0.0632896
0.0315019
0.0591757
0.0293257
0.0538092
0.0262738
0.0478664
0.0228655
0.0419116
0.0195152
0.0363155
0.0164635
0.0312664
0.0138135
0.0268213
0.01158
0.0229598
0.00972958
0.0196254
0.00820917
0.0167505
0.00696205
0.0142693
0.00593659
0.0121229
0.00508911
0.0102608
0.00438495
0.00863987
0.00379623
0.00722391
0.00329964
0.00598433
0.0028823
0.00489486
0.00252718
0.00393443
0.00222223
0.00308556
0.00196323
0.00233274
0.00173493
0.00166461
0.0015449
0.00106804
0.00136924
0.000538656
0.00123093
6.79022e-05
0.00109546
-0.000363051
0.000985951
-0.000747753
0.000883171
-0.00109097
0.000787165
-0.00139796
0.000703723
-0.00167178
0.000626338
-0.0019147
0.000553908
-0.00212885
0.000485062
-0.00231072
0.000400264
-0.00245987
0.000310721
-0.00257264
0.000205262
-0.00265727
0.000123025
-0.00273346
0.000115154
-0.00283092
0.000219249
-0.00297596
0.000425406
-0.00316045
0.000616046
-0.00331416
0.000574107
-0.00329535
2.71419e-05
-0.00291773
-0.0011883
-0.0019917
-0.00309486
-0.000459913
-0.00521286
0.00137644
-0.00628541
0.00290915
-0.00538298
0.00340588
-0.00227972
0.002264
0.00267425
-0.000875669
0.00905437
-0.00568526
0.0149024
-0.0111899
0.0182848
-0.0159674
0.0172588
-0.0187074
0.0114253
-0.0186296
0.00186549
-0.0157768
-0.00839116
-0.0110726
-0.0154606
-0.00598031
-0.017127
-0.00172249
-0.0143017
0.00117536
-0.00967018
0.00280297
-0.00541428
0.00343808
-0.00214837
0.00343837
-4.42396e-05
0.00313181
0.00100021
0.00277146
0.0012181
0.00250407
0.000940625
0.00237311
0.000498913
0.00234201
0.000172042
0.00235111
4.88164e-05
0.00236632
4.6907e-05
0.00238056
7.63333e-05
0.00240578
7.05222e-05
0.00246203
5.83529e-07
0.00256774
-0.000133606
0.00273927
-0.000320566
0.00298526
-0.000541752
0.00330784
-0.00077445
0.00370271
-0.000999192
0.00416116
-0.00120067
0.00467107
-0.0013662
0.00521937
-0.0014912
0.00579269
-0.00157287
0.00638087
-0.00162006
0.00697532
-0.00163636
0.0075733
-0.00163931
0.00817468
-0.00163627
0.00878708
-0.00165231
0.00941768
-0.00168587
0.0100793
-0.00175501
0.0107841
-0.00185635
0.0115541
-0.00202336
0.0124056
-0.00224035
0.0133536
-0.00250694
0.0143949
-0.00276396
0.0155303
-0.00302274
0.016753
-0.00325603
0.0180749
-0.00352382
0.0194983
-0.00379453
0.0210434
-0.00412754
0.0227104
-0.00445751
0.0245221
-0.00485706
0.0264745
-0.00523911
0.0285947
-0.00570624
0.030878
-0.00614957
0.0333532
-0.00669185
0.0360255
-0.00722762
0.0389082
-0.00784013
0.0420506
-0.00854428
0.0454059
-0.00920422
0.0491343
-0.0102156
0.0530705
-0.0109355
0.0575542
-0.0124357
0.0622259
-0.0132044
0.0681226
-0.0169239
0.0732096
-0.014687
0.0838569
-0.0345051
-0.0330668
0.0686866
0.0304182
-0.0678962
0.0696503
0.0312415
0.0702098
0.0319001
0.069701
0.0320108
0.0677661
0.0312606
0.064424
0.0296158
0.0599758
0.0273138
0.0548314
0.0246596
0.0493884
0.0219065
0.0439693
0.0192326
0.0388005
0.0167487
0.034017
0.0145131
0.0296799
0.0125462
0.0257996
0.0108423
0.022356
0.00938023
0.0193133
0.00813179
0.0166305
0.0070678
0.014266
0.00616073
0.0121806
0.00538502
0.0103404
0.00472252
0.00871351
0.00415406
0.00727259
0.00366315
0.00599426
0.00324156
0.0048572
0.00287199
0.00384521
0.00255689
0.00294057
0.00227388
0.00213416
0.00203734
0.00141059
0.00181903
0.000763694
0.00163285
0.000185479
0.00146139
-0.000338462
0.00131111
-0.000809956
0.00117522
-0.00123033
0.00104671
-0.00160451
0.000928091
-0.00193649
0.000817039
-0.00222345
0.000687226
-0.0024664
0.000553667
-0.00266247
0.000401339
-0.00281819
0.000278746
-0.00295544
0.000252396
-0.00310413
0.00036794
-0.00329263
0.000613909
-0.00351292
0.000836334
-0.00369164
0.000752825
-0.00368178
1.72854e-05
-0.00328343
-0.00158665
-0.00228831
-0.00408998
-0.000614586
-0.00688658
0.00142788
-0.00832787
0.00313371
-0.00708881
0.00359055
-0.00273657
0.00205852
0.00420629
-0.00179032
0.0129032
-0.00746154
0.0205737
-0.0136579
0.0244812
-0.0187525
0.0223534
-0.0214212
0.014094
-0.0210004
0.0014447
-0.0176109
-0.0117807
-0.0121972
-0.0208744
-0.00633504
-0.0229892
-0.00139288
-0.0192438
0.00199824
-0.0130613
0.00391237
-0.00732842
0.0046627
-0.0028987
0.00466705
-4.85905e-05
0.00431441
0.00135285
0.00390414
0.00162837
0.00360756
0.00123721
0.00347405
0.000632426
0.00346122
0.00018487
0.00350065
9.38399e-06
0.00355349
-5.93339e-06
0.00361273
1.70994e-05
0.00369287
-9.62026e-06
0.00381589
-0.000122435
0.00400573
-0.000323452
0.00427912
-0.000593951
0.00464568
-0.00090831
0.00510635
-0.00123512
0.00565522
-0.00154807
0.00628111
-0.00182656
0.00696904
-0.00205412
0.00770332
-0.00222548
0.00846816
-0.00233771
0.009252
-0.0024039
0.0100454
-0.00242973
0.0108461
-0.00244004
0.0116552
-0.00244538
0.0124831
-0.00248021
0.0133395
-0.00254222
0.014241
-0.00265659
0.0152036
-0.00281893
0.0162547
-0.00307441
0.0174137
-0.00339934
0.0186986
-0.00379188
0.0201054
-0.00417079
0.021636
-0.00455327
0.0232825
-0.00490257
0.0250605
-0.00530178
0.0269725
-0.00570661
0.0290442
-0.00619923
0.0312756
-0.00668891
0.0336952
-0.00727659
0.0362979
-0.00784183
0.0391173
-0.00852565
0.042148
-0.00918024
0.0454238
-0.00996772
0.0489538
-0.0107576
0.0527473
-0.0116336
0.0568736
-0.0126706
0.0612565
-0.0135872
0.0661147
-0.0150738
0.0712038
-0.0160246
0.076989
-0.0182208
0.0829354
-0.0191508
0.0903883
-0.0243769
0.0968111
-0.0211098
0.109164
-0.0468576
-0.0447674
0.0727628
0.0297787
-0.0721232
0.0735322
0.0304721
0.0742596
0.0311726
0.0745572
0.0317132
0.0740337
0.0317842
0.072446
0.0312035
0.0697656
0.0299942
0.0661269
0.0282982
0.0617561
0.0262773
0.0569114
0.0240773
0.0518414
0.0218188
0.0467591
0.0195954
0.0418301
0.0174753
0.037169
0.0155034
0.0328442
0.013705
0.0288862
0.0120898
0.0252987
0.0106553
0.022068
0.00939145
0.0191703
0.00828275
0.0165784
0.00731435
0.0142629
0.00646954
0.0121951
0.00573105
0.0103483
0.00508828
0.00869735
0.00452298
0.00722144
0.0040328
0.00589842
0.00359691
0.00471436
0.0032214
0.00365043
0.00288296
0.00269583
0.00258745
0.00183723
0.00231999
0.00106675
0.00208158
0.000376291
0.00186567
-0.000244018
0.00166702
-0.000806079
0.00149015
-0.00130503
0.00131599
-0.00174249
0.00112468
-0.00212127
0.000932454
-0.00243932
0.000719386
-0.00270257
0.000541999
-0.00293044
0.000480261
-0.0031522
0.000589698
-0.00339883
0.000860548
-0.00366604
0.00110354
-0.00388508
0.000971869
-0.00391697
4.91771e-05
-0.00355611
-0.00194751
-0.00257826
-0.00506783
-0.000861092
-0.00860375
0.00131324
-0.0105022
0.00315818
-0.00893375
0.00356874
-0.00314713
0.00165861
0.00611641
-0.00283101
0.0173928
-0.00921189
0.0269545
-0.0158875
0.0311569
-0.0210976
0.0275634
-0.0236129
0.0166093
-0.0228889
0.000720698
-0.0190649
-0.0156046
-0.0130211
-0.0269182
-0.00642187
-0.0295883
-0.000793417
-0.0248723
0.00310092
-0.0169556
0.00531549
-0.00954299
0.00619304
-0.00377624
0.00621066
-6.62049e-05
0.00581947
0.00174404
0.00536629
0.00208154
0.0050481
0.0015554
0.00492155
0.000758976
0.00493924
0.00016718
0.00502349
-7.48627e-05
0.00513211
-0.00011456
0.00525717
-0.000107955
0.0054146
-0.000167051
0.00563157
-0.000339409
0.00593305
-0.000624936
0.00633852
-0.000999413
0.00685712
-0.00142692
0.00748919
-0.00186719
0.00822673
-0.00228561
0.00905608
-0.00265591
0.00995931
-0.00295735
0.0109181
-0.00318428
0.0119142
-0.0033338
0.0129347
-0.00342442
0.0139693
-0.00346434
0.0150167
-0.00348741
0.0160791
-0.00350778
0.0171701
-0.00357116
0.0183019
-0.00367403
0.0194957
-0.00385046
0.0207712
-0.00409435
0.0221613
-0.00446457
0.0236887
-0.00492675
0.0253747
-0.00547784
0.0272142
-0.00601032
0.0292106
-0.00654967
0.0313552
-0.00704714
0.0336671
-0.00761371
0.0361493
-0.00818877
0.0388324
-0.00888237
0.0417162
-0.00957268
0.0448347
-0.0103951
0.0481818
-0.011189
0.0517968
-0.0121406
0.0556741
-0.0130575
0.0598501
-0.0141437
0.06434
-0.0152475
0.0691435
-0.016437
0.0743559
-0.017883
0.0798601
-0.0190913
0.0859437
-0.0211575
0.0922655
-0.0223464
0.0994314
-0.0253867
0.106705
-0.0264249
0.115739
-0.0334102
0.123572
-0.0289426
0.137389
-0.0606747
-0.0577118
0.0771978
0.0292114
-0.0766305
0.0778113
0.0298586
0.0784527
0.0305312
0.0789638
0.0312021
0.079098
0.0316499
0.0786068
0.0316948
0.0773262
0.0312748
0.0751984
0.0304261
0.0722605
0.0292151
0.0686189
0.0277189
0.0644209
0.0260167
0.059833
0.0241834
0.0550236
0.0222846
0.0501503
0.0203767
0.0453482
0.0185072
0.0407232
0.0167147
0.03635
0.0150285
0.0322737
0.0134678
0.0285148
0.0120416
0.0250769
0.0107523
0.0219505
0.00959593
0.0191186
0.00856293
0.0165608
0.00764611
0.0142536
0.00683021
0.0121756
0.00611076
0.010303
0.00546953
0.00861794
0.00490644
0.00709887
0.00440204
0.00573071
0.0039556
0.00449679
0.00355392
0.00338515
0.00319323
0.00238335
0.00286747
0.00148261
0.00256776
0.000675255
0.00229751
-3.90474e-05
0.00203029
-0.000697074
0.00178271
-0.00126946
0.00150484
-0.00176233
0.00121226
-0.00218089
0.000960557
-0.00254142
0.000840793
-0.00286956
0.000917838
-0.00319909
0.00119008
-0.00353434
0.00143879
-0.00382024
0.00125776
-0.00394203
0.000170972
-0.00369475
-0.00219479
-0.00284208
-0.00592049
-0.00120289
-0.0102429
0.00101274
-0.0127178
0.00296376
-0.0108848
0.00334655
-0.00352991
0.00111437
0.00834859
-0.00388377
0.022391
-0.0107706
0.0338414
-0.0176969
0.0380832
-0.022868
0.0327346
-0.0252192
0.0189605
-0.0243068
-0.000191653
-0.0201618
-0.0197497
-0.0135587
-0.0335213
-0.00622924
-0.0369178
0.000111114
-0.0312127
0.00454033
-0.0213849
0.00708068
-0.0120833
0.00810323
-0.00479879
0.00814562
-0.000108597
0.00772366
0.00216601
0.00723408
0.00257112
0.00690164
0.00188785
0.00679202
0.000868595
0.00685351
0.000105684
0.00699961
-0.00022096
0.00718442
-0.000299371
0.00739809
-0.000321621
0.00765919
-0.000428151
0.00799712
-0.000677341
0.00844096
-0.00106877
0.00901047
-0.00156893
0.00971559
-0.00213204
0.0105556
-0.00270717
0.0115205
-0.00325055
0.0125942
-0.0037296
0.0137557
-0.00411885
0.014984
-0.00441254
0.0162581
-0.00460792
0.0175638
-0.00473014
0.0188897
-0.00479028
0.0202354
-0.0048331
0.0216043
-0.00487662
0.0230131
-0.00497996
0.0244768
-0.00513773
0.0260213
-0.00539498
0.0276697
-0.00574277
0.0294612
-0.00625602
0.0314208
-0.00688642
0.0335737
-0.00763073
0.0359139
-0.00835048
0.0384468
-0.00908257
0.0411623
-0.00976263
0.0440836
-0.010535
0.0472129
-0.0113181
0.0505864
-0.0122558
0.0542025
-0.0131887
0.0581006
-0.0142932
0.0622731
-0.0153615
0.0667637
-0.0166313
0.0715668
-0.0178606
0.0767192
-0.0192962
0.0822431
-0.0207714
0.0881244
-0.0223183
0.0944857
-0.0242443
0.101164
-0.0257701
0.108516
-0.0285091
0.116099
-0.0299292
0.124659
-0.0339466
0.133246
-0.0350124
0.143808
-0.0439724
0.153039
-0.0381727
0.168029
-0.0756648
-0.0715528
0.0819489
0.0286904
-0.0814279
0.0824764
0.029331
0.0830211
0.0299866
0.0835257
0.0306975
0.0838699
0.0313056
0.0838954
0.0316692
0.0834503
0.0317199
0.0824192
0.0314572
0.0807378
0.0308966
0.0783931
0.0300636
0.0754159
0.0289939
0.0718712
0.0277281
0.0678505
0.0263054
0.0634648
0.0247623
0.058837
0.023135
0.0540921
0.0214596
0.0493477
0.019773
0.0447051
0.0181104
0.0402436
0.016503
0.03602
0.0149759
0.0320689
0.0135471
0.0284063
0.0122254
0.0250358
0.0110167
0.0219494
0.00991658
0.0191352
0.00892492
0.0165748
0.00802993
0.0142515
0.00722971
0.0121442
0.00650934
0.0102356
0.00586428
0.00850658
0.00528289
0.00694195
0.00475786
0.00552641
0.00428301
0.00424737
0.0038468
0.00309365
0.00345122
0.00205405
0.0030699
0.00112428
0.00271248
0.000298001
0.00233112
-0.000436529
0.00194679
-0.00107834
0.00160237
-0.00163031
0.00139277
-0.00211413
0.00140166
-0.00256603
0.00164198
-0.00300422
0.00187697
-0.00339806
0.0016516
-0.00366716
0.000440081
-0.0036242
-0.00223776
-0.00302128
-0.00652341
-0.0016035
-0.0116607
0.000541972
-0.0148633
0.00256096
-0.0129038
0.00296047
-0.00392942
0.000507595
0.0108015
-0.00480303
0.0277016
-0.0119538
0.0409921
-0.0189121
0.0450416
-0.0239568
0.0377792
-0.0262124
0.0212161
-0.0252568
-0.00114728
-0.0209206
-0.0240859
-0.0138231
-0.0406187
-0.00574566
-0.0449953
0.00134553
-0.0383038
0.0063824
-0.0264217
0.00928916
-0.0149901
0.0104814
-0.00599099
0.0105618
-0.000189085
0.010116
0.00261182
0.0095948
0.00309235
0.00925399
0.00222865
0.00917028
0.000952312
0.00928923
-1.32727e-05
0.0095147
-0.000446427
0.00979655
-0.000581222
0.0101228
-0.000647836
0.0105135
-0.000818866
0.0110017
-0.00116558
0.0116181
-0.00168518
0.0123851
-0.00233585
0.0133127
-0.00305964
0.0143996
-0.00379408
0.015634
-0.00448502
0.0169974
-0.00509299
0.0184657
-0.0055871
0.0200149
-0.00596172
0.0216211
-0.00621413
0.0232683
-0.0063774
0.0249438
-0.00646569
0.0266474
-0.00653675
0.0283834
-0.0066126
0.0301717
-0.00676825
0.0320295
-0.0069956
0.0339878
-0.00735324
0.0360727
-0.00782767
0.0383292
-0.00851255
0.0407848
-0.00934197
0.0434685
-0.0103145
0.0463735
-0.0112555
0.0495081
-0.0122172
0.0528603
-0.0131148
0.0564572
-0.014132
0.0602996
-0.0151605
0.0644282
-0.0163845
0.0688397
-0.0176003
0.073578
-0.0190315
0.0786335
-0.020417
0.0840524
-0.0220501
0.0898297
-0.0236379
0.0959985
-0.025465
0.10259
-0.0273633
0.109572
-0.0292995
0.117095
-0.0317673
0.124945
-0.033621
0.133547
-0.0371106
0.142352
-0.0387347
0.152247
-0.0438411
0.162062
-0.0448278
0.174009
-0.0559192
0.184544
-0.0487074
0.200375
-0.0914962
-0.0859417
0.0870261
0.0282045
-0.0865402
0.0875069
0.0288502
0.08799
0.0295035
0.0884493
0.0302382
0.0888278
0.0309272
0.089042
0.0314549
0.0889948
0.0317671
0.0885917
0.0318603
0.0877528
0.0317354
0.0864209
0.0313955
0.0845624
0.0308524
0.0821663
0.0301242
0.0792427
0.0292289
0.0758237
0.0281814
0.0719637
0.026995
0.0677385
0.0256848
0.0632416
0.0242699
0.0585765
0.0227754
0.0538485
0.021231
0.0491555
0.0196688
0.0445813
0.0181213
0.0401909
0.0166159
0.0360306
0.0151769
0.0321284
0.0138188
0.0284989
0.0125544
0.0251435
0.0113854
0.0220577
0.0103155
0.0192291
0.00933797
0.016644
0.00844941
0.0142853
0.00764155
0.012137
0.00690617
0.0101826
0.00623743
0.00840672
0.00562266
0.00679619
0.00506176
0.00533586
0.00453023
0.00401796
0.00403038
0.00282869
0.00352038
0.00176727
0.00300821
0.000833056
0.00253658
2.94351e-05
0.00219639
-0.000690491
0.00212158
-0.00132702
0.00227851
-0.00192039
0.00247034
-0.00247708
0.00220829
-0.00295908
0.000922074
-0.00321637
-0.00198047
-0.00299732
-0.00674246
-0.00196488
-0.0126932
-1.42452e-05
-0.0168139
0.0020023
-0.0149203
0.00248545
-0.00441257
-3.7987e-05
0.0133249
-0.00541446
0.0330781
-0.0125681
0.0481458
-0.0193751
0.0518486
-0.0242746
0.0426787
-0.0265539
0.0234954
-0.0257177
-0.00198352
-0.021333
-0.0284705
-0.0138136
-0.0481381
-0.00495902
-0.0538499
0.00296746
-0.0462303
0.00869735
-0.0321516
0.0120329
-0.0183256
0.0134291
-0.00738718
0.0135631
-0.000323135
0.0130983
0.00307659
0.0125468
0.00364383
0.0122003
0.00257518
0.0121499
0.0010027
0.0123366
-0.000199952
0.0126593
-0.000769143
0.0130582
-0.00098011
0.0135191
-0.0011087
0.0140637
-0.00136347
0.0147279
-0.00182983
0.0155461
-0.00250336
0.0165424
-0.00333211
0.017728
-0.00424526
0.0191014
-0.00516751
0.0206494
-0.00603303
0.0223511
-0.00679472
0.0241793
-0.00741526
0.0261068
-0.00788926
0.0281062
-0.0082135
0.0301591
-0.00843026
0.0322501
-0.0085567
0.0343792
-0.00866589
0.0365502
-0.00878363
0.0387859
-0.00900389
0.041105
-0.00931471
0.0435431