/*--------------------------------*- C++ -*----------------------------------*\
| =========                 |                                                 |
| \\      /  F ield         | OpenFOAM: The Open Source CFD Toolbox           |
|  \\    /   O peration     | Version:  2412                                  |
|   \\  /    A nd           | Website:  www.openfoam.com                      |
|    \\/     M anipulation  |                                                 |
\*---------------------------------------------------------------------------*/
FoamFile
{
    version     2.0;
    format      ascii;
    arch        "LSB;label=32;scalar=64";
    class       volScalarField;
    location    "0.4";
    object      p;
}
// * * * * * * * * * * * * * * * * * * * * * * * * * * * * * * * * * * * * * //

dimensions      [0 2 -2 0 0 0 0];

internalField   nonuniform List<scalar> 
12600
(
3.47813
-84.092
-65.302
-12.5026
34.1378
70.0995
98.8318
122.778
143.295
161.179
176.929
190.957
203.544
214.889
225.136
234.418
242.819
250.602
257.761
264.296
269.966
274.96
279.873
285.179
290.273
293.281
294.358
298.035
302.64
305.43
307.202
309.287
311.51
313.35
314.859
316.351
317.858
319.2
320.326
321.35
322.359
323.316
324.16
324.9
325.587
326.239
326.84
327.373
327.856
328.318
328.77
329.209
329.628
330.028
330.41
330.758
331.03
331.165
331.1
330.758
330.067
329.01
327.678
326.32
325.159
324.169
322.941
320.934
318.254
315.054
315.085
317.011
330.036
332.433
352.448
315.148
214.778
243.3
262.083
243.211
255.783
245.688
234.832
201.044
154.067
126.466
152.079
226.335
336.373
441.981
520.547
561.744
584.202
592.412
595.302
593.048
591.892
592.64
594.469
587.486
570.517
553.094
552.494
566.961
578.42
584.818
588.1
588.904
588.634
586.956
584.86
583.225
582.661
584.536
588.167
594.327
600.789
605.717
610.919
609.913
65.6815
-14.797
-27.7742
-1.75138
33.0015
65.922
94.2887
118.473
139.341
157.592
173.75
188.153
201.066
212.691
223.15
232.724
241.325
249.29
256.606
263.192
268.92
274.145
279.422
284.772
289.266
291.973
294.16
298.378
302.481
304.839
306.747
309.045
311.291
313.094
314.631
316.183
317.714
319.05
320.181
321.228
322.259
323.223
324.07
324.818
325.518
326.18
326.786
327.323
327.811
328.279
328.735
329.175
329.593
329.994
330.378
330.728
331.004
331.147
331.089
330.76
330.087
329.05
327.733
326.375
325.218
324.234
323.029
321.064
318.43
315.192
315.133
316.745
329.658
331.871
352.184
317.219
216.484
242.826
262.05
243.327
255.69
245.972
235.578
202.481
155.483
126.785
150.858
223.702
333.149
439.174
518.709
560.754
583.716
592.227
595.28
593.097
591.899
592.597
594.51
587.792
570.974
553.352
552.358
566.639
578.196
584.696
588.047
588.894
588.654
587
584.904
583.252
582.651
584.476
588.059
594.189
600.662
605.605
610.866
609.915
92.646
34.0124
6.46611
13.5501
38.2663
66.7149
93.2733
116.837
137.564
155.849
172.075
186.573
199.599
211.346
221.939
231.536
240.242
248.371
255.758
262.371
268.159
273.557
279.058
284.282
288.113
290.905
294.601
298.79
302.232
304.309
306.416
308.887
311.136
312.918
314.484
316.074
317.616
318.95
320.088
321.152
322.195
323.163
324.013
324.768
325.475
326.143
326.752
327.292
327.784
328.254
328.712
329.153
329.572
329.973
330.357
330.708
330.985
331.131
331.081
330.763
330.102
329.076
327.765
326.408
325.251
324.271
323.083
321.147
318.55
315.295
315.166
316.589
329.423
331.523
352.021
318.392
217.453
242.517
262.048
243.384
255.628
246.136
235.982
203.274
156.305
126.991
150.136
222.431
331.624
437.832
517.786
560.25
583.459
592.124
595.267
593.114
591.901
592.573
594.537
587.924
571.187
553.48
552.286
566.508
578.097
584.642
588.022
588.89
588.663
587.015
584.921
583.264
582.645
584.46
588.019
594.137
600.612
605.561
610.841
609.916
102.306
65.8348
38.5948
34.1454
47.9151
69.9275
93.4804
115.754
135.966
154.086
170.31
184.881
198.017
209.885
220.596
230.315
239.149
247.328
254.825
261.54
267.452
272.985
278.456
283.462
287.27
290.564
295.1
299.017
301.604
303.752
306.097
308.702
310.937
312.71
314.313
315.938
317.489
318.824
319.975
321.058
322.113
323.087
323.942
324.704
325.42
326.094
326.708
327.252
327.748
328.223
328.683
329.125
329.545
329.947
330.332
330.684
330.965
331.116
331.074
330.768
330.121
329.109
327.808
326.456
325.297
324.321
323.154
321.252
318.691
315.403
315.191
316.352
329.111
331.083
351.854
320.007
218.566
242.086
262.066
243.477
255.561
246.386
236.619
204.426
157.372
127.122
149.003
220.081
328.876
435.531
516.31
559.467
583.078
591.982
595.253
593.16
591.905
592.539
594.578
588.192
571.56
553.675
552.159
566.234
577.914
584.543
587.981
588.884
588.681
587.055
584.958
583.285
582.634
584.401
587.924
594.017
600.504
605.468
610.799
609.918
111.075
90.5792
68.6524
57.8896
61.8562
76.3997
95.6903
115.838
135.069
152.774
168.853
183.411
196.599
208.545
219.345
229.144
238.075
246.354
253.934
260.72
266.759
272.376
277.768
282.648
286.714
290.622
295.022
298.551
300.748
303.164
305.89
308.527
310.736
312.504
314.145
315.802
317.359
318.697
319.862
320.963
322.029
323.008
323.868
324.64
325.365
326.045
326.662
327.211
327.712
328.19
328.653
329.096
329.517
329.919
330.306
330.66
330.943
331.1
331.067
330.774
330.142
329.144
327.852
326.501
325.343
324.372
323.228
321.363
318.84
315.515
315.208
316.114
328.776
330.606
351.642
321.468
219.495
241.587
262.104
243.561
255.492
246.636
237.221
205.529
158.366
127.144
147.797
217.983
326.463
433.452
514.938
558.736
582.714
591.844
595.24
593.187
591.908
592.506
594.621
588.409
571.885
553.847
552.036
566.015
577.761
584.461
587.945
588.878
588.696
587.081
584.986
583.303
582.623
584.368
587.855
593.929
600.421
605.396
610.763
609.92
121.263
109.946
93.5775
81.1394
78.8718
86.5145
100.539
117.492
135.058
151.972
167.709
182.147
195.323
207.306
218.167
228.031
237.051
245.407
253.06
259.933
266.07
271.733
277.093
281.961
286.286
290.518
294.651
297.883
300.241
302.806
305.725
308.376
310.517
312.284
313.974
315.66
317.221
318.562
319.744
320.865
321.941
322.924
323.791
324.572
325.306
325.992
326.614
327.167
327.673
328.156
328.621
329.066
329.487
329.89
330.278
330.633
330.92
331.084
331.061
330.781
330.166
329.182
327.898
326.551
325.391
324.427
323.308
321.48
318.994
315.625
315.209
315.837
328.398
330.065
351.35
322.864
220.219
240.972
262.168
243.66
255.421
246.914
237.891
206.682
159.298
126.984
146.313
215.329
323.522
431.013
513.375
557.916
582.312
591.696
595.227
593.236
591.911
592.471
594.67
588.682
572.259
554.028
551.882
565.735
577.578
584.364
587.905
588.873
588.715
587.121
585.023
583.324
582.612
584.31
587.76
593.81
600.313
605.304
610.72
609.922
131.138
124.421
112.749
101.768
96.8708
99.422
108.219
121.193
136.263
151.821
166.905
181.068
194.155
206.139
217.042
226.97
236.069
244.49
252.208
259.159
265.389
271.112
276.464
281.374
285.884
290.213
294.128
297.234
299.836
302.626
305.566
308.143
310.292
312.069
313.798
315.515
317.076
318.423
319.622
320.762
321.849
322.836
323.71
324.501
325.245
325.937
326.563
327.121
327.633
328.119
328.587
329.033
329.455
329.859
330.248
330.606
330.897
331.067
331.055
330.79
330.192
329.223
327.948
326.602
325.441
324.485
323.393
321.605
319.153
315.73
315.187
315.523
327.963
329.44
350.955
324.079
220.725
240.19
262.236
243.767
255.347
247.215
238.595
207.812
160.084
126.564
144.543
212.581
320.418
428.413
511.7
557.041
581.881
591.536
595.213
593.27
591.913
592.434
594.724
588.956
572.638
554.203
551.71
565.452
577.392
584.267
587.865
588.869
588.735
587.155
585.058
583.344
582.593
584.261
587.668
593.697
600.207
605.215
610.677
609.923
140.138
135.924
127.848
119.283
113.949
113.523
118.189
127.172
139.138
152.666
166.609
180.215
193.077
205.002
215.931
225.922
235.099
243.585
251.366
258.396
264.723
270.515
275.892
280.847
285.44
289.757
293.551
296.685
299.527
302.467
305.386
307.911
309.941
311.831
313.645
315.359
316.926
318.278
319.498
320.657
321.753
322.744
323.625
324.428
325.181
325.879
326.51
327.073
327.59
328.081
328.55
328.997
329.421
329.826
330.216
330.576
330.872
331.049
331.049
330.801
330.22
329.266
327.999
326.655
325.493
324.547
323.484
321.736
319.316
315.826
315.134
315.155
327.454
328.711
350.454
325.071
221.07
239.18
262.361
243.889
255.271
247.526
239.301
208.898
160.637
125.807
142.411
209.353
316.917
425.518
509.849
556.082
581.409
591.362
595.197
593.318
591.916
592.394
594.784
589.259
573.038
554.371
551.508
565.132
577.19
584.163
587.823
588.866
588.758
587.2
585.098
583.366
582.578
584.199
587.562
593.566
600.087
605.115
610.629
609.924
148.596
146.036
140.393
133.887
129.088
127.394
129.389
135.063
143.87
154.9
167.151
179.766
192.134
203.871
214.777
224.823
234.084
242.645
250.502
257.627
264.062
269.937
275.35
280.333
284.956
289.236
292.999
296.248
299.286
302.309
305.169
307.622
309.696
311.585
313.447
315.235
316.768
318.129
319.372
320.549
321.652
322.648
323.537
324.351
325.114
325.818
326.454
327.023
327.545
328.04
328.512
328.96
329.384
329.791
330.183
330.545
330.845
331.031
331.044
330.813
330.251
329.313
328.054
326.71
325.547
324.61
323.579
321.872
319.477
315.906
315.043
314.731
326.85
327.857
349.867
325.825
221.385
237.863
262.519
244.029
255.194
247.858
240.02
209.84
160.861
124.636
139.872
205.791
313.06
422.325
507.804
555.026
580.887
591.168
595.178
593.363
591.919
592.352
594.847
589.576
573.448
554.527
551.275
564.788
576.976
584.055
587.78
588.863
588.783
587.241
585.139
583.388
582.558
584.136
587.451
593.429
599.96
605.01
610.578
609.924
156.696
155.262
151.144
146.124
142.172
140.235
140.776
144.091
150.186
158.671
168.87
180.042
191.528
202.814
213.56
223.609
232.945
241.598
249.558
256.804
263.368
269.341
274.805
279.817
284.452
288.72
292.522
295.903
299.079
302.124
304.914
307.322
309.425
311.394
313.278
315.019
316.634
317.986
319.242
320.438
321.548
322.548
323.447
324.273
325.045
325.755
326.395
326.97
327.499
327.998
328.471
328.921
329.346
329.754
330.146
330.511
330.816
331.011
331.038
330.826
330.285
329.364
328.112
326.767
325.601
324.676
323.679
322.014
319.635
315.963
314.901
314.212
326.125
326.838
349.205
326.347
221.854
236.144
262.727
244.194
255.116
248.266
240.721
210.556
160.654
122.986
136.875
201.747
308.759
418.772
505.526
553.854
580.304
590.948
595.151
593.412
591.923
592.307
594.914
589.913
573.87
554.669
551.006
564.407
576.745
583.939
587.735
588.861
588.811
587.292
585.184
583.412
582.536
584.065
587.328
593.279
599.82
604.896
610.521
609.923
164.382
163.691
160.59
156.661
153.529
151.781
151.656
153.485
157.535
163.779
171.882
181.333
191.566
202.055
212.383
222.282
231.627
240.365
248.45
255.848
262.569
268.67
274.216
279.28
283.95
288.244
292.117
295.615
298.867
301.898
304.63
307.026
309.179
311.203
313.121
314.873
316.397
317.832
319.125
320.323
321.442
322.446
323.354
324.191
324.973
325.689
326.335
326.916
327.45
327.953
328.429
328.879
329.305
329.714
330.107
330.474
330.784
330.989
331.032
330.841
330.322
329.418
328.173
326.824
325.656
324.743
323.781
322.157
319.784
315.988
314.697
313.65
325.255
325.656
348.399
326.624
222.474
233.897
262.988
244.392
255.04
248.646
241.378
210.943
159.922
120.797
133.384
197.217
303.974
414.813
502.977
552.545
579.645
590.693
595.114
593.462
591.929
592.26
594.983
590.265
574.299
554.793
550.697
563.99
576.497
583.817
587.689
588.86
588.842
587.342
585.232
583.437
582.512
583.989
587.195
593.118
599.667
604.773
610.458
609.918
171.632
171.46
169.121
166.009
163.526
162.071
161.718
162.706
165.352
169.821
176.04
183.732
192.497
201.886
211.487
220.984
230.169
238.907
247.096
254.661
261.571
267.842
273.521
278.688
283.435
287.794
291.749
295.333
298.623
301.633
304.337
306.75
308.957
311.028
312.957
314.702
316.262
317.655
318.979
320.225
321.327
322.34
323.26
324.109
324.899
325.62
326.272
326.86
327.4
327.907
328.384
328.834
329.261
329.67
330.065
330.434
330.749
330.965
331.024
330.855
330.36
329.475
328.237
326.884
325.71
324.81
323.884
322.303
319.919
315.972
314.42
312.893
324.213
324.22
347.401
326.587
223.393
230.985
263.298
244.629
254.97
249.06
241.949
210.879
158.601
118.012
129.354
192.111
298.631
410.385
500.115
551.077
578.897
590.394
595.061
593.512
591.936
592.208
595.053
590.631
574.733
554.896
550.345
563.531
576.228
583.687
587.641
588.86
588.875
587.399
585.281
583.463
582.484
583.906
587.051
592.943
599.499
604.64
610.386
609.91
178.504
178.714
176.963
174.456
172.454
171.284
170.916
171.467
173.208
176.374
181.047
187.133
194.397
202.516
211.143
219.969
228.753
237.31
245.491
253.174
260.275
266.755
272.63
277.964
282.844
287.306
291.353
295.011
298.331
301.34
304.051
306.504
308.763
310.863
312.795
314.535
316.097
317.526
318.846
320.073
321.246
322.24
323.164
324.025
324.823
325.55
326.208
326.803
327.349
327.859
328.337
328.788
329.215
329.624
330.019
330.39
330.71
330.936
331.013
330.869
330.402
329.537
328.306
326.945
325.765
324.877
323.988
322.447
320.034
315.904
314.054
312.111
322.979
322.51
346.17
325.983
224.162
227.217
263.638
244.913
254.911
249.502
242.379
210.253
156.633
114.576
124.739
186.36
292.656
405.421
496.886
549.425
578.044
590.038
594.985
593.559
591.944
592.152
595.119
591.007
575.17
554.976
549.946
563.024
575.939
583.549
587.59
588.861
588.911
587.455
585.338
583.495
582.454
583.815
586.893
592.752
599.314
604.494
610.303
609.897
185.048
185.529
184.224
182.176
180.546
179.623
179.318
179.654
180.836
183.096
186.582
191.313
197.189
204.012
211.528
219.479
227.631
235.786
243.769
251.43
258.644
265.322
271.429
276.991
282.064
286.68
290.848
294.598
297.977
301.025
303.779
306.285
308.588
310.706
312.638
314.371
315.947
317.393
318.733
319.966
321.067
322.135
323.077
323.939
324.746
325.479
326.143
326.745
327.297
327.809
328.288
328.739
329.165
329.574
329.968
330.34
330.666
330.903
330.999
330.882
330.444
329.604
328.38
327.01
325.819
324.942
324.09
322.585
320.123
315.774
313.585
311.149
321.531
320.517
344.551
324.683
224.542
222.421
263.971
245.25
254.866
249.965
242.611
208.948
153.976
110.439
119.476
179.861
285.953
399.839
493.232
547.559
577.068
589.611
594.877
593.6
591.952
592.089
595.173
591.388
575.608
555.034
549.5
562.471
575.618
583.399
587.536
588.863
588.951
587.525
585.396
583.527
582.42
583.716
586.722
592.543
599.109
604.334
610.207
609.878
191.287
191.949
190.988
189.308
187.973
187.252
187.025
187.262
188.105
189.755
192.369
196.021
200.7
206.313
212.698
219.666
227.02
234.575
242.158
249.606
256.777
263.55
269.848
275.65
280.962
285.789
290.137
294.033
297.525
300.667
303.502
306.073
308.417
310.55
312.48
314.224
315.811
317.271
318.62
319.86
320.99
322.007
322.972
323.866
324.664
325.406
326.078
326.687
327.244
327.759
328.238
328.688
329.113
329.519
329.913
330.285
330.615
330.864
330.98
330.892
330.488
329.676
328.461
327.08
325.874
325.006
324.19
322.715
320.181
315.572
312.997
310.054
319.858
318.242
342.479
322.48
223.747
216.563
264.229
245.643
254.826
250.449
242.573
206.866
150.592
105.556
113.486
172.507
278.41
393.546
489.081
545.443
575.948
589.094
594.726
593.631
591.959
592.017
595.213
591.768
576.045
555.069
549.004
561.862
575.268
583.238
587.478
588.865
588.994
587.592
585.461
583.562
582.383
583.608
586.534
592.314
598.879
604.157
610.094
609.851
197.242
198.024
197.335
195.954
194.853
194.29
194.139
194.335
194.972
196.214
198.202
201.028
204.731
209.283
214.606
220.574
227.045
233.865
240.881
247.935
254.878
261.583
267.948
273.914
279.445
284.515
289.104
293.222
296.906
300.204
303.162
305.823
308.22
310.38
312.326
314.085
315.69
317.165
318.515
319.755
320.884
321.922
322.873
323.758
324.611
325.34
326.012
326.63
327.191
327.708
328.187
328.635
329.057
329.461
329.852
330.224
330.558
330.818
330.955
330.898
330.531
329.755
328.55
327.158
325.934
325.07
324.289
322.833
320.202
315.289
312.273
308.79
317.929
315.685
339.905
319.549
222.519
209.894
264.309
246.084
254.823
250.97
242.183
203.94
146.443
99.8922
106.664
164.177
269.894
386.432
484.348
543.029
574.662
588.468
594.517
593.645
591.96
591.931
595.235
592.139
576.483
555.087
548.459
561.196
574.883
583.064
587.415
588.867
589.04
587.672
585.53
583.602
582.342
583.489
586.327
592.062
598.623
603.961
609.96
609.815
202.94
203.797
203.321
202.182
201.27
200.831
200.747
200.931
201.44
202.405
203.948
206.158
209.089
212.758
217.138
222.163
227.742
233.762
240.099
246.617
253.174
259.638
265.907
271.901
277.557
282.825
287.662
292.051
295.998
299.525
302.666
305.46
307.948
310.169
312.158
313.95
315.579
317.066
318.424
319.664
320.792
321.835
322.798
323.682
324.484
325.265
325.957
326.572
327.137
327.658
328.135
328.581
329
329.399
329.786
330.156
330.492
330.763
330.921
330.898
330.575
329.837
328.655
327.248
326.003
325.137
324.388
322.941
320.184
314.918
311.398
307.316
315.69
312.837
336.759
316.646
220.443
203.354
264.078
246.567
254.689
251.493
241.384
200.137
141.485
93.4261
98.8915
154.753
260.251
378.371
478.926
540.252
573.178
587.71
594.235
593.635
591.951
591.825
595.227
592.493
576.919
555.088
547.87
560.461
574.459
582.873
587.346
588.869
589.09
587.755
585.607
583.644
582.295
583.357
586.099
591.783
598.335
603.742
609.803
609.769
208.401
209.298
208.988
208.048
207.289
206.952
206.923
207.106
207.533
208.308
209.532
211.284
213.62
216.575
220.155
224.338
229.073
234.289
239.896
245.787
251.839
257.926
263.945
269.814
275.461
280.819
285.832
290.46
294.68
298.484
301.877
304.879
307.524
309.86
311.935
313.79
315.461
316.97
318.338
319.582
320.718
321.759
322.723
323.614
324.439
325.184
325.878
326.528
327.093
327.606
328.084
328.527
328.941
329.334
329.715
330.081
330.417
330.697
330.877
330.891
330.616
329.927
328.774
327.36
326.086
325.216
324.491
323.042
320.125
314.458
310.355
305.566
313.124
309.672
332.918
314.816
219.008
198.633
263.417
247.08
254.604
251.987
240.113
195.475
135.677
86.1425
90.0376
144.123
249.311
369.214
472.687
537.025
571.46
586.799
593.857
593.59
591.925
591.693
595.175
592.816
577.355
555.082
547.239
559.661
573.991
582.664
587.269
588.87
589.143
587.847
585.688
583.69
582.243
583.21
585.846
591.474
598.011
603.496
609.618
609.711
213.642
214.553
214.373
213.597
212.965
212.709
212.725
212.911
213.283
213.923
214.917
216.328
218.209
220.599
223.521
226.978
230.954
235.41
240.289
245.513
250.986
256.6
262.253
267.863
273.361
278.678
283.749
288.519
292.946
297.001
300.666
303.936
306.826
309.364
311.591
313.554
315.297
316.853
318.248
319.506
320.65
321.699
322.666
323.546
324.371
325.131
325.824
326.45
327.035
327.574
328.039
328.473
328.882
329.267
329.64
329.999
330.333
330.62
330.821
330.873
330.652
330.024
328.912
327.502
326.203
325.315
324.609
323.141
320.032
313.907
309.125
303.709
310.182
306.137
328.225
314.183
218.592
197.072
262.275
247.602
254.381
252.416
238.297
189.992
128.981
78.0243
79.9775
132.192
236.897
358.789
465.478
533.242
569.465
585.713
593.358
593.498
591.873
591.526
595.064
593.095
577.791
555.081
546.576
558.791
573.474
582.433
587.184
588.871
589.2
587.946
585.781
583.743
582.189
583.046
585.566
591.13
597.646
603.22
609.4
609.639
218.678
219.584
219.505
218.866
218.34
218.148
218.198
218.389
218.723
219.266
220.089
221.244
222.777
224.723
227.114
229.966
233.283
237.051
241.24
245.801
250.664
255.745
260.956
266.211
271.443
276.59
281.59
286.38
290.91
295.134
299.023
302.554
305.723
308.532
311
313.151
315.025
316.667
318.12
319.418
320.586
321.644
322.612
323.501
324.321
325.078
325.778
326.418
326.988
327.5
327.989
328.427
328.823
329.2
329.563
329.912
330.24
330.53
330.749
330.841
330.682
330.127
329.073
327.679
326.355
325.457
324.76
323.255
319.915
313.271
307.695
301.382
306.786
302.192
322.638
313.727
218.505
197.995
260.646
248.119
254.003
252.742
235.911
183.792
121.395
69.0528
68.6
118.874
222.825
346.903
457.13
528.792
567.141
584.429
592.703
593.346
591.784
591.314
594.879
593.313
578.228
555.103
545.893
557.856
572.904
582.179
587.088
588.87
589.262
588.056
585.878
583.794
582.132
582.863
585.254
590.748
597.235
602.909
609.144
609.549
223.525
224.412
224.41
223.885
223.447
223.306
223.383
223.577
223.883
224.354
225.048
226.009
227.273
228.873
230.839
233.195
235.954
239.121
242.683
246.616
250.874
255.398
260.116
264.955
269.843
274.72
279.533
284.225
288.742
293.035
297.06
300.788
304.197
307.274
310.016
312.429
314.527
316.339
317.906
319.277
320.492
321.582
322.566
323.459
324.281
325.042
325.737
326.377
326.957
327.479
327.944
328.373
328.775
329.134
329.485
329.821
330.139
330.427
330.662
330.792
330.701
330.233
329.263
327.909
326.591
325.663
324.966
323.406
319.797
312.568
306.068
298.795
302.881
297.782
316.219
312.505
217.658
199.249
258.582
248.594
253.425
252.904
232.913
176.942
112.901
59.1838
55.8137
104.088
206.917
333.341
447.455
523.555
564.422
582.917
591.85
593.119
591.65
591.049
594.603
593.455
578.666
555.17
545.209
556.86
572.276
581.896
586.98
588.868
589.329
588.174
585.994
583.87
582.071
582.659
584.908
590.322
596.772
602.559
608.846
609.44
228.195
229.053
229.11
228.68
228.316
228.216
228.312
228.508
228.792
229.207
229.802
230.613
231.669
232.997
234.624
236.577
238.874
241.526
244.538
247.898
251.583
255.553
259.759
264.142
268.637
273.181
277.724
282.221
286.622
290.877
294.941
298.775
302.346
305.631
308.614
311.286
313.648
315.711
317.492
319.019
320.331
321.476
322.495
323.413
324.247
325.011
325.712
326.353
326.925
327.448
327.918
328.336
328.715
329.082
329.41
329.729
330.032
330.313
330.557
330.723
330.705
330.34
329.481
328.199
326.896
325.967
325.261
323.628
319.711
311.825
304.249
295.841
298.428
292.677
308.89
310.468
215.994
200.249
256.166
248.997
252.632
252.839
229.342
169.595
103.578
48.3945
41.4675
87.7396
189.01
317.866
436.244
517.397
561.232
581.113
590.753
592.801
591.457
590.721
594.224
593.507
579.107
555.312
544.549
555.816
571.584
581.58
586.857
588.862
589.401
588.303
586.103
583.904
582.004
582.432
584.522
589.848
596.25
602.162
608.497
609.307
232.699
233.521
233.622
233.272
232.97
232.903
233.012
233.209
233.475
233.845
234.362
235.055
235.948
237.061
238.419
240.046
241.962
244.184
246.721
249.574
252.734
256.181
259.88
263.79
267.861
272.036
276.262
280.494
284.695
288.821
292.827
296.67
300.313
303.725
306.881
309.764
312.363
314.678
316.714
318.48
319.994
321.279
322.375
323.332
324.194
324.979
325.69
326.334
326.914
327.433
327.897
328.313
328.684
329.014
329.35
329.643
329.924
330.19
330.436
330.634
330.689
330.441
329.727
328.562
327.316
326.405
325.694
323.961
319.707
311.093
302.263
292.541
293.241
286.846
300.551
307.67
214.205
201.794
253.497
249.443
251.648
252.528
225.22
161.792
93.4218
36.6164
25.6038
69.7101
168.967
300.231
423.264
510.14
557.399
578.995
589.371
592.361
591.194
590.323
593.726
593.461
579.553
555.57
543.964
554.75
570.825
581.222
586.712
588.848
589.478
588.447
586.254
583.955
581.932
582.18
584.094
589.32
595.662
601.713
608.09
609.147
237.049
237.83
237.963
237.68
237.43
237.389
237.508
237.702
237.952
238.286
238.74
239.34
240.102
241.045
242.187
243.551
245.156
247.02
249.156
251.571
254.266
257.232
260.451
263.896
267.53
271.311
275.192
279.122
283.065
286.988
290.852
294.618
298.246
301.701
304.952
307.976
310.756
313.281
315.547
317.553
319.306
320.818
322.104
323.187
324.108
324.916
325.648
326.313
326.905
327.43
327.894
328.298
328.662
328.987
329.277
329.568
329.822
330.065
330.301
330.522
330.646
330.53
329.997
329.003
327.87
327.017
326.319
324.471
319.846
310.436
300.18
288.926
287.99
280.212
291.328
304.104
211.182
204.434
250.613
250.008
250.584
251.969
220.69
153.753
82.6375
23.8622
8.42695
49.9233
146.691
280.194
408.266
501.565
552.767
576.491
587.675
591.754
590.846
589.851
593.107
593.319
580.007
555.997
543.528
553.701
569.997
580.811
586.534
588.823
589.557
588.583
586.387
583.989
581.855
581.902
583.62
588.731
594.999
601.205
607.617
608.956
241.255
241.992
242.148
241.921
241.715
241.695
241.818
242.009
242.245
242.548
242.951
243.474
244.132
244.937
245.906
247.057
248.409
249.978
251.778
253.82
256.11
258.648
261.427
264.431
267.637
271.015
274.527
278.133
281.79
285.461
289.121
292.737
296.273
299.693
302.963
306.056
308.949
311.625
314.071
316.28
318.25
319.986
321.495
322.793
323.894
324.816
325.59
326.262
326.871
327.421
327.899
328.306
328.659
328.964
329.249
329.498
329.735
329.947
330.161
330.39
330.578
330.593
330.277
329.52
328.575
327.836
327.193
325.23
320.225
309.965
298.072
285.004
281.346
272.827
281.303
299.794
207.159
206.405
247.834
250.887
249.679
251.318
215.91
145.523
71.2483
9.979
-10.166
28.3383
122.142
257.544
390.997
491.426
547.193
573.519
585.651
590.908
590.402
589.303
592.351
593.082
580.471
556.675
543.328
552.738
569.111
580.331
586.312
588.773
589.633
588.758
586.558
584.096
581.774
581.596
583.096
588.077
594.251
600.627
607.069
608.726
245.325
246.018
246.188
246.008
245.839
245.836
245.962
246.148
246.37
246.647
247.007
247.467
248.039
248.733
249.561
250.539
251.684
253.01
254.531
256.259
258.203
260.367
262.752
265.351
268.152
271.134
274.272
277.534
280.884
284.285
287.702
291.115
294.496
297.815
301.036
304.129
307.067
309.828
312.396
314.758
316.904
318.832
320.544
322.047
323.353
324.474
325.42
326.202
326.84
327.382
327.87
328.306
328.671
328.974
329.234
329.465
329.661
329.846
330.03
330.247
330.484
330.623
330.54
330.083
329.408
328.904
328.368
326.339
320.917
309.781
296.141
281.123
274.63
264.519
270.567
294.533
208.77
211.502
245.791
252.176
249.421
250.798
211.188
137.517
59.7124
-4.78335
-30.0634
4.97015
95.3639
232.131
371.213
479.465
540.543
569.967
583.278
589.711
589.858
588.681
591.442
592.758
580.951
557.677
543.48
551.958
568.199
579.769
586.02
588.684
589.7
588.914
586.731
584.183
581.691
581.261
582.518
587.348
593.409
599.971
606.431
608.45
249.269
249.916
250.095
249.954
249.818
249.828
249.954
250.133
250.343
250.598
250.921
251.328
251.829
252.431
253.144
253.981
254.956
256.083
257.372
258.837
260.488
262.33
264.37
266.606
269.033
271.641
274.413
277.327
280.355
283.467
286.63
289.812
292.994
296.154
299.266
302.297
305.219
308.006
310.637
313.095
315.367
317.446
319.326
321.009
322.497
323.801
324.93
325.896
326.707
327.362
327.87
328.276
328.64
328.973
329.249
329.465
329.631
329.771
329.917
330.112
330.367
330.625
330.783
330.667
330.378
330.192
329.879
327.864
322.118
310.063
294.527
277.285
267.669
255.996
259.479
288.275
218.75
218.834
248.446
254.563
250.427
250.864
206.954
129.924
48.1777
-20.457
-51.0765
-20.1194
66.4695
203.885
348.695
465.391
532.63
565.651
580.507
588.037
589.207
587.967
590.347
592.344
581.443
559.029
544.138
551.475
567.317
579.11
585.644
588.529
589.737
589.067
586.927
584.292
581.621
580.892
581.885
586.541
592.462
599.225
605.696
608.12
253.094
253.697
253.88
253.772
253.663
253.683
253.808
253.98
254.178
254.412
254.704
255.067
255.509
256.034
256.653
257.373
258.209
259.17
260.268
261.514
262.917
264.486
266.227
268.144
270.236
272.5
274.927
277.501
280.206
283.017
285.908
288.849
291.812
294.779
297.731
300.645
303.494
306.251
308.891
311.394
313.741
315.923
317.93
319.757
321.403
322.868
324.158
325.283
326.255
327.083
327.765
328.294
328.673
328.949
329.206
329.455
329.64
329.757
329.851
329.995
330.254
330.593
330.973
331.24
331.399
331.71
331.733
329.851
323.867
310.971
293.575
274.047
260.998
247.027
248.598
280.873
228.804
221.276
251.701
257.572
253.271
252.143
203.695
123.498
37.5455
-36.2491
-72.7013
-46.6011
35.7428
172.877
323.289
448.888
523.169
560.327
577.239
585.841
588.403
587.142
589.083
591.782
581.937
560.756
545.423
551.42
566.541
578.359
585.154
588.286
589.713
589.197
587.127
584.411
581.517
580.488
581.195
585.647
591.399
598.375
604.851
607.726
256.809
257.368
257.552
257.471
257.385
257.413
257.535
257.7
257.887
258.103
258.368
258.693
259.084
259.546
260.086
260.71
261.43
262.255
263.194
264.257
265.453
266.79
268.276
269.917
271.715
273.67
275.779
278.034
280.425
282.934
285.543
288.228
290.964
293.723
296.487
299.242
301.968
304.644
307.243
309.74
312.117
314.356
316.445
318.377
320.146
321.747
323.181
324.45
325.561
326.524
327.346
328.033
328.584
328.993
329.27
329.439
329.58
329.735
329.853
329.965
330.149
330.514
331.085
331.746
332.408
333.216
333.859
332.294
326.328
312.834
293.489
271.378
254.867
239.025
238.551
272.174
237.956
222.406
254.666
261.327
258.536
255.56
202.151
118.699
28.1784
-51.9724
-94.5336
-74.1312
3.5414
139.332
294.949
429.699
511.851
553.802
573.351
583.148
587.306
586.197
587.687
591.01
582.425
562.833
547.401
551.886
565.95
577.538
584.537
587.926
589.629
589.28
587.333
584.541
581.548
580.084
580.449
584.663
590.208
597.41
603.877
607.257
260.421
260.938
261.12
261.061
260.995
261.029
261.148
261.306
261.481
261.681
261.922
262.215
262.563
262.972
263.445
263.989
264.613
265.325
266.132
267.043
268.066
269.209
270.479
271.882
273.424
275.107
276.932
278.894
280.989
283.207
285.534
287.954
290.446
292.99
295.56
298.135
300.704
303.253
305.762
308.208
310.568
312.822
314.954
316.952
318.807
320.511
322.061
323.457
324.698
325.788
326.73
327.53
328.198
328.749
329.188
329.504
329.694
329.747
329.764
329.915
330.165
330.532
331.113
331.984
333.218
334.82
336.156
335.13
329.322
315.652
294.707
270.402
250.169
231.443
228.787
263.607
247.469
230.214
260.825
271.474
266.845
262.501
202.837
116.639
21.5495
-66.0182
-115.389
-101.91
-29.3955
103.758
263.816
407.744
498.47
546.026
568.724
579.996
585.713
585.114
586.225
589.815
582.858
565.181
550.094
552.921
565.61
576.702
583.79
587.449
589.435
589.29
587.524
584.678
581.433
579.686
579.652
583.585
588.881
596.313
602.761
606.7
263.937
264.415
264.592
264.552
264.503
264.542
264.657
264.806
264.971
265.157
265.377
265.641
265.953
266.316
266.733
267.211
267.755
268.372
269.069
269.853
270.732
271.712
272.799
274.002
275.324
276.77
278.343
280.043
281.867
283.811
285.867
288.024
290.267
292.58
294.943
297.336
299.738
302.134
304.514
306.864
309.162
311.389
313.525
315.552
317.458
319.233
320.87
322.366
323.717
324.924
325.984
326.897
327.67
328.314
328.842
329.271
329.611
329.857
330.005
329.988
329.993
330.374
331.153
332.335
333.82
335.767
338.122
338.132
333.029
319.666
297.406
270.609
247.319
226.838
221.281
255.292
251.806
237.378
264.48
287.292
278.325
273.887
207.833
117.97
18.2182
-77.7816