/*--------------------------------*- C++ -*----------------------------------*\
| =========                 |                                                 |
| \\      /  F ield         | OpenFOAM: The Open Source CFD Toolbox           |
|  \\    /   O peration     | Version:  2412                                  |
|   \\  /    A nd           | Website:  www.openfoam.com                      |
|    \\/     M anipulation  |                                                 |
\*---------------------------------------------------------------------------*/
FoamFile
{
    version     2.0;
    format      ascii;
    arch        "LSB;label=32;scalar=64";
    class       surfaceScalarField;
    location    "0.4";
    object      phi;
}
// * * * * * * * * * * * * * * * * * * * * * * * * * * * * * * * * * * * * * //

dimensions      [0 3 -1 0 0 0 0];

oriented        oriented;

internalField   nonuniform List<scalar> 
24930
(
0.016793
0.0215767
-0.0384517
0.00704865
0.00974435
0.0033063
0.00374236
0.00188405
0.00142225
0.00123671
0.000647344
0.000857259
0.000379449
0.000600947
0.000256315
0.000415906
0.000185045
0.00027748
0.000138428
0.000171709
0.000105774
8.88867e-05
8.28305e-05
2.34775e-05
6.54212e-05
-2.84548e-05
5.19407e-05
-7.00507e-05
4.15936e-05
-0.00010338
3.33184e-05
-0.000128932
2.55539e-05
-0.000150147
2.12465e-05
-0.000165745
1.56438e-05
-0.000178192
1.24527e-05
-0.000187051
8.77297e-06
-0.000193336
6.1909e-06
-0.000197323
4.08756e-06
-0.00019935
2.41412e-06
-0.000199747
5.93905e-07
-0.000198691
-1.88167e-06
-0.00019672
-2.96273e-06
-0.000193622
-2.00949e-06
-0.000189817
-3.02602e-06
-0.000185302
-4.64519e-06
-0.000180381
-5.19331e-06
-0.000175086
-5.39641e-06
-0.000169511
-5.4922e-06
-0.000163715
-5.72499e-06
-0.000157832
-5.91597e-06
-0.000151925
-5.9487e-06
-0.000146023
-5.88272e-06
-0.000140149
-5.83008e-06
-0.000134388
-5.7545e-06
-0.000128745
-5.66658e-06
-0.000123221
-5.53552e-06
-0.000117808
-5.40172e-06
-0.00011251
-5.28952e-06
-0.000107323
-5.196e-06
-0.000102271
-5.06729e-06
-9.7407e-05
-4.87024e-06
-9.28645e-05
-4.54044e-06
-8.87275e-05
-4.13894e-06
-8.50981e-05
-3.63902e-06
-8.19823e-05
-3.12601e-06
-7.92657e-05
-2.72138e-06
-7.67315e-05
-2.53542e-06
-7.39953e-05
-2.73992e-06
-7.05761e-05
-3.42708e-06
-6.58631e-05
-4.72061e-06
-5.91662e-05
-6.70285e-06
-4.97734e-05
-9.39778e-06
-3.701e-05
-1.27677e-05
-2.03835e-05
-1.663e-05
3.84142e-07
-2.0771e-05
2.38339e-05
-2.34528e-05
4.80677e-05
-2.42353e-05
6.85149e-05
-2.04484e-05
7.98863e-05
-1.13768e-05
7.98829e-05
-1.08613e-08
7.2443e-05
7.44689e-06
6.30964e-05
9.36314e-06
4.64404e-05
1.66591e-05
7.57893e-07
4.56769e-05
-9.63338e-05
9.70877e-05
-0.000248441
0.000152107
-0.000409536
0.000161092
-0.000470863
6.13784e-05
-0.000296822
-0.000174048
4.13987e-05
-0.000338236
0.00135535
-0.00131398
0.00225318
-0.000897871
0.000854233
0.00139901
0.000122701
0.000731616
0.000299122
-0.000176475
0.000253249
4.5858e-05
0.000479456
-0.000226193
0.000632861
-0.000153448
0.000549531
8.33445e-05
-0.000167694
0.000717267
-0.00151662
0.00134894
-0.00305915
0.00154248
-0.00409153
0.00103234
-0.00434729
0.000255707
-0.00378875
-0.000558577
-0.00268924
-0.00109951
-0.0014972
-0.00119201
-0.000649027
-0.000848156
-7.04379e-05
-0.000578581
0.000262807
-0.000333237
0.000406254
-0.000143438
0.00040076
5.49524e-06
0.000403618
-2.85892e-06
0.000537928
-0.000134314
0.000759153
-0.000221228
0.000731113
2.80532e-05
0.000257513
0.000473611
-0.000387355
0.000644864
-0.000690885
0.000303516
-0.000515745
-0.000175159
-0.000227492
-0.000288254
-2.07786e-05
-0.00020671
0.000118008
-0.000138785
0.000198929
-8.0921e-05
0.000239773
-4.0845e-05
0.000231604
8.16793e-06
0.000177256
5.43438e-05
9.50614e-05
8.2192e-05
2.91166e-05
6.59432e-05
3.1241e-07
2.88075e-05
7.7217e-05
-7.69067e-05
0.000252211
-0.000174997
0.000566306
-0.000314098
0.000905566
-0.000339262
0.00143888
-0.000533313
-0.000419537
0.035197
0.0305426
-0.0441628
0.02396
0.0209813
0.0153598
0.0123426
0.00999732
0.00678473
0.00681982
0.00382484
0.00485986
0.00233941
0.00355331
0.00156287
0.0026237
0.00111466
0.00193257
0.000829577
0.00140264
0.000635714
0.000988335
0.000497144
0.000659343
0.00039441
0.000395536
0.000315747
0.000183024
0.000254132
1.51118e-05
0.000201276
-0.000132614
0.000173302
-0.000250686
0.000139277
-0.000344416
0.000109323
-0.000419994
8.80885e-05
-0.000479464
6.84183e-05
-0.000525784
5.25627e-05
-0.00056092
3.89375e-05
-0.0005864
2.76657e-05
-0.000603678
1.84268e-05
-0.000614119
9.12925e-06
-0.000619013
1.16915e-06
-0.00061933
-1.82378e-06
-0.000614654
-7.65795e-06
-0.000607398
-1.19982e-05
-0.000597077
-1.53047e-05
-0.000584616
-1.77478e-05
-0.000570274
-1.98633e-05
-0.000554526
-2.14644e-05
-0.000537792
-2.25947e-05
-0.000520366
-2.33455e-05
-0.000502464
-2.38002e-05
-0.000484285
-2.40215e-05
-0.00046611
-2.39148e-05
-0.000448024
-2.37339e-05
-0.000430075
-2.34881e-05
-0.000412301
-2.3195e-05
-0.000394741
-2.28634e-05
-0.000377418
-2.25221e-05
-0.00036043
-2.20612e-05
-0.000343991
-2.1324e-05
-0.00032854
-2.0011e-05
-0.000314415
-1.82784e-05
-0.000301948
-1.61154e-05
-0.000291174
-1.39086e-05
-0.00028172
-1.21888e-05
-0.000272824
-1.14468e-05
-0.000263176
-1.24002e-05
-0.00025109
-1.55242e-05
-0.000234454
-2.13672e-05
-0.000210912
-3.02574e-05
-0.000178056
-4.22649e-05
-0.000133662
-5.71709e-05
-7.61307e-05
-7.41689e-05
-5.08105e-06
-9.18274e-05
7.59039e-05
-0.000104443
0.000159583
-0.000107919
0.000231111
-9.19758e-05
0.000272746
-5.30072e-05
0.000275272
-2.54031e-06
0.0002499
3.28119e-05
0.000212731
4.65147e-05
0.000143862
8.55243e-05
-2.73302e-05
0.000216873
-0.000379091
0.000448856
-0.000897869
0.000670888
-0.00144037
0.000703595
-0.00158259
0.000203545
-0.000998235
-0.000758442
0.000155111
-0.00149163
0.00434978
-0.00550863
0.00723632
-0.00378432
0.00319423
0.00544109
0.000650594
0.00327535
0.00100548
-0.000531429
0.000946883
0.000104417
0.00163376
-0.000913033
0.00208693
-0.000606579
0.0015156
0.000654737
-0.00118376
0.00341661
-0.00580734
0.0059725
-0.010662
0.0063971
-0.0136339
0.00400418
-0.0140238
0.000645606
-0.0120166
-0.00256575
-0.00844307
-0.00467304
-0.00469638
-0.00493868
-0.00195667
-0.00358783
-8.96096e-05
-0.00244562
0.00100007
-0.00142289
0.00144753
-0.000590893
0.00143662
1.64184e-05
0.00147821
-4.44506e-05
0.0019476
-0.000603708
0.00258186
-0.00085548
0.00229444
0.000315466
0.00061376
0.00215428
-0.00139277
0.00265137
-0.00219452
0.00110525
-0.00156743
-0.000802257
-0.000639168
-0.00121651
2.46323e-05
-0.000870509
0.000458555
-0.000572709
0.000711821
-0.000334188
0.00082092
-0.000149947
0.000777945
5.11393e-05
0.000598985
0.000233303
0.000352737
0.000328438
0.000200638
0.000218039
0.000186282
4.31586e-05
0.000557691
-0.00044832
0.00122306
-0.000840372
0.00232495
-0.00141598
0.00350037
-0.00151468
0.00522973
-0.00226268
-0.00188366
0.045224
0.0326642
-0.0473455
0.0379613
0.028244
0.029218
0.0210859
0.0215317
0.014471
0.0157579
0.00959862
0.0116757
0.00642166
0.00878845
0.00445014
0.00668784
0.00321528
0.005109
0.00240842
0.00389011
0.00185462
0.00292952
0.00145774
0.00216087
0.00116307
0.00153884
0.000937772
0.00103124
0.000761747
0.000614661
0.000617886
0.000274652
0.000513339
-9.35834e-07
0.000414845
-0.000238106
0.000346477
-0.000428901
0.000278894
-0.000583402
0.000223014
-0.000707781
0.000177039
-0.000806607
0.000137675
-0.000883536
0.000104239
-0.00094189
7.67474e-05
-0.000984046
5.22457e-05
-0.0010129
3.05656e-05
-0.0010297
1.44559e-05
-0.00103796
8.43038e-07
-0.00103718
-1.28568e-05
-0.00103026
-2.21626e-05
-0.00101742
-3.05268e-05
-0.000999915
-3.73863e-05
-0.000978648
-4.27069e-05
-0.00095452
-4.66868e-05
-0.0009282
-4.96537e-05
-0.000900216
-5.17862e-05
-0.000871045
-5.3186e-05
-0.000841258
-5.36905e-05
-0.000811115
-5.38747e-05
-0.000780776
-5.38353e-05
-0.000750384
-5.35974e-05
-0.000720066
-5.31901e-05
-0.000689921
-5.26763e-05
-0.000660156
-5.18387e-05
-0.0006312
-5.02957e-05
-0.000603834
-4.73919e-05
-0.000578705
-4.34211e-05
-0.000556408
-3.84255e-05
-0.000537036
-3.32933e-05
-0.000519937
-2.93019e-05
-0.000503736
-2.76617e-05
-0.000486086
-3.00642e-05
-0.000463931
-3.76929e-05
-0.000433495
-5.18173e-05
-0.000390562
-7.32037e-05
-0.000330883
-0.000101956
-0.00025059
-0.000137474
-0.000147014
-0.000177754
-1.97071e-05
-0.000219142
0.000126039
-0.000250195
0.000276877
-0.000258759
0.000407461
-0.000222561
0.000486111
-0.000131655
0.000494502
-1.0918e-05
0.000448891
7.84209e-05
0.000374842
0.000120556
0.000235992
0.000224369
-9.03952e-05
0.000543257
-0.000745208
0.00110367
-0.00167629
0.00160197
-0.0026233
0.00165061
-0.00281242
0.000392646
-0.00175867
-0.00181222
0.000249208
-0.00349956
0.00728768
-0.0125471
0.0123969
-0.00889351
0.00604514
0.0117929
0.00149186
0.00782876
0.00183056
-0.000870194
0.00177488
0.000160055
0.00292304
-0.00206115
0.00358644
-0.00126998
0.00221172
0.0020295
-0.00293398
0.00856231
-0.0111912
0.0142297
-0.0192573
0.0144631
-0.0237556
0.00850253
-0.0238445
0.000734433
-0.0201542
-0.00625608
-0.0140568
-0.0107704
-0.007768
-0.0112274
-0.00314927
-0.00820653
3.84849e-05
-0.00563336
0.00192898
-0.00331337
0.00268603
-0.00134793
0.002675
2.74448e-05
0.0027866
-0.00015605
0.00361639
-0.0014335
0.00458822
-0.0018273
0.00386088
0.0010428
0.000818673
0.00519648
-0.00254175
0.00601178
-0.00370843
0.00227192
-0.00254814
-0.00196256
-0.000956866
-0.00280779
0.000167441
-0.00199481
0.000903763
-0.00130903
0.00132544
-0.000755868
0.00148953
-0.000314039
0.00140171
0.00013896
0.00110232
0.000532689
0.000719945
0.000710808
0.000551116
0.000386865
0.000640849
-4.65777e-05
0.00143673
-0.0012442
0.00270624
-0.00210989
0.00472887
-0.00343861
0.00682343
-0.00360924
0.00982323
-0.00526249
-0.00453054
0.0510998
0.0320474
-0.0504831
0.048031
0.0313129
0.0418125
0.0273043
0.034363
0.0219206
0.0272904
0.0166712
0.0213671
0.012345
0.0166978
0.00911946
0.013083
0.00683008
0.0102721
0.00521934
0.00805852
0.00406819
0.00629126
0.00322501
0.00486301
0.00259133
0.00369719
0.00210359
0.00273825
0.0017207
0.00194478
0.00141139
0.00128865
0.00116948
0.000741879
0.000961616
0.00028959
0.000798757
-8.54915e-05
0.00065399
-0.000398601
0.000536166
-0.000654795
0.000433271
-0.000863298
0.000346209
-0.00103083
0.000271772
-0.0011635
0.000209304
-0.00126622
0.000155087
-0.00134367
0.000108471
-0.00139969
6.93728e-05
-0.00143625
3.69611e-05
-0.00145748
8.53277e-06
-0.00146521
-1.4599e-05
-0.00146294
-3.28439e-05
-0.00145068
-4.96523e-05
-0.00143076
-6.25918e-05
-0.00140472
-7.26982e-05
-0.00137381
-8.05516e-05
-0.00133906
-8.65401e-05
-0.00130135
-9.08803e-05
-0.00126169
-9.33398e-05
-0.00122063
-9.49331e-05
-0.00117855
-9.59288e-05
-0.00113577
-9.63889e-05
-0.00109257
-9.63899e-05
-0.00104921
-9.60498e-05
-0.00100605
-9.50148e-05
-0.000963771
-9.25884e-05
-0.000923566
-8.76117e-05
-0.000886448
-8.05523e-05
-0.000853326
-7.15615e-05
-0.000824381
-6.2253e-05
-0.000798676
-5.50212e-05
-0.000774171
-5.21814e-05
-0.00074737
-5.68798e-05
-0.000713688
-7.13895e-05
-0.000667494
-9.80256e-05
-0.000602539
-0.000138173
-0.000512572
-0.000191936
-0.000391986
-0.00025807
-0.000237003
-0.000332747
-4.70359e-05
-0.000409116
0.000170843
-0.000468079
0.000397357
-0.000485277
0.000596106
-0.00042131
0.000719916
-0.000255462
0.000738512
-2.95082e-05
0.00067047
0.000146461
0.000549098
0.00024192
0.000319033
0.000454429
-0.000199229
0.00106152
-0.00120436
0.0021088
-0.00259233
0.00298994
-0.0039576
0.00301589
-0.00416839
0.000603426
-0.00257542
-0.00340523
0.000337326
-0.00641235
0.010017
-0.0222268
0.0175786
-0.0164551
0.00941283
0.0199587
0.00270196
0.0145398
0.00280826
-0.000976564
0.00273893
0.000229343
0.00434172
-0.00366389
0.00508096
-0.00200921
0.00252479
0.0045857
-0.00556499
0.0166521
-0.0176819
0.0263465
-0.0287294
0.0255106
-0.0342237
0.0139968
-0.0335594
7.008e-05
-0.0280187
-0.0117968
-0.0194309
-0.0193582
-0.0106955
-0.0199628
-0.00421068
-0.0146914
0.000338136
-0.0101822
0.0030618
-0.00603702
0.00414959
-0.0024357
0.0041499
2.71405e-05
0.00435604
-0.000362194
0.00555012
-0.00262759
0.00676934
-0.00304652
0.00540969
0.00240245
0.000867279
0.00973888
-0.00378245
0.0106615
-0.00517367
0.00366312
-0.00341871
-0.00371753
-0.00115439
-0.00507211
0.000438257
-0.00358746
0.00147438
-0.00234516
0.00206161
-0.0013431
0.00227184
-0.000524273
0.00213845
0.000272349
0.00173895
0.000932184
0.0012682
0.00118155
0.00117584
0.000479217
0.00147698
-0.000347715
0.00284177
-0.002609
0.00482706
-0.00409518
0.00788042
-0.00649198
0.0109892
-0.00671798
0.0153238
-0.00959717
-0.00847975
0.0549567
0.0308574
-0.0537666
0.0545376
0.031732
0.0513968
0.0304451
0.046024
0.0272934
0.0395455
0.0231497
0.0330187
0.0188718
0.027096
0.0150421
0.0220313
0.0118948
0.0178261
0.00942461
0.0143716
0.00752269
0.0115357
0.0060609
0.00919902
0.004928
0.00726411
0.00403851
0.00565413
0.00333071
0.00430865
0.00275689
0.00318362
0.00229453
0.00223878
0.00190645
0.00144776
0.00158977
0.000783901
0.00131787
0.000229874
0.00109024
-0.000232236
0.00089541
-0.000615772
0.00072977
-0.000930216
0.000586252
-0.00118577
0.000464766
-0.00139047
0.00035962
-0.00155165
0.000269973
-0.00167564
0.000193417
-0.00176778
0.000129049
-0.00183313
7.45129e-05
-0.00187493
2.7294e-05
-0.0018961
-1.16363e-05
-0.0019028
-4.28832e-05
-0.00189502
-7.03336e-05
-0.00187587
-9.18276e-05
-0.00184751
-0.000108905
-0.00181169
-0.000122349
-0.00176994
-0.000132623
-0.00172385
-0.000139416
-0.00167446
-0.000144332
-0.00162247
-0.000147925
-0.00156852
-0.000150342
-0.00151317
-0.000151745
-0.00145689
-0.000152346
-0.00140028
-0.000151637
-0.00134436
-0.000148533
-0.00129076
-0.000141219
-0.00124096
-0.000130373
-0.00119622
-0.000116315
-0.00115686
-0.000101626
-0.00112166
-9.02327e-05
-0.00108788
-8.59828e-05
-0.00105077
-9.40082e-05
-0.00100408
-0.000118091
-0.000940175
-0.000161947
-0.000850599
-0.000227764
-0.000726976
-0.000315572
-0.000561888
-0.00042317
-0.000350345
-0.0005443
-9.15682e-05
-0.000667901
0.000205633
-0.000765287
0.000516302
-0.000795951
0.000792763
-0.00069777
0.000970988
-0.000433685
0.0010052
-6.37149e-05
0.0009127
0.000238956
0.000731909
0.000422704
0.000385988
0.000800345
-0.000364515
0.00181201
-0.0017701
0.00351439
-0.00365605
0.00487589
-0.00544153
0.00480139
-0.00564478
0.000806666
-0.0034503
-0.00559975
0.000452109
-0.0103148
0.0123242
-0.0340988
0.0224833
-0.0266142
0.0132824
0.0291596
0.00432868
0.0234937
0.00396974
-0.000617699
0.00384881
0.000350235
0.00587154
-0.00568658
0.00650113
-0.0026388
0.0023382
0.00874866
-0.00917771
0.028168
-0.0252614
0.0424302
-0.038844
0.0390932
-0.0446846
0.0198374
-0.0428567
-0.00175779
-0.0353974
-0.019256
-0.0244488
-0.0303068
-0.0134035
-0.0310081
-0.00511967
-0.0229752
0.000808904
-0.0161107
0.00441541
-0.00964352
0.00586534
-0.00388563
0.00589454
-2.06563e-06
0.00621653
-0.000684193
0.0077565
-0.00416756
0.00910857
-0.00439859
0.00693771
0.0045733
0.000803653
0.0158729
-0.00505569
0.0165208
-0.00653947
0.00514688
-0.00414339
-0.00611362
-0.00120299
-0.00801252
0.000861675
-0.00565213
0.00219836
-0.00368185
0.00294931
-0.00209404
0.00320511
-0.000780077
0.00303766
0.00043979
0.00257645
0.0013934
0.00208343
0.00167457
0.00217528
0.00038737
0.00280117
-0.000973616
0.00487504
-0.00468286
0.00768784
-0.00690799
0.0118937
-0.0106978
0.0161037
-0.0109279
0.0218308
-0.0153243
-0.0138352
0.0581879
0.0298827
-0.0572132
0.0588519
0.031068
0.0579915
0.0313055
0.0551257
0.0301591
0.0505266
0.0277488
0.044868
0.0245305
0.0388595
0.0210506
0.033042
0.0177123
0.0277317
0.0147349
0.0230568
0.0121977
0.0190252
0.0100925
0.0155851
0.00836811
0.0126632
0.0069604
0.0101851
0.00580882
0.00808312
0.00485892
0.00630173
0.00407593
0.00478988
0.00341829
0.0035097
0.00286994
0.0024252
0.0024024
0.0015094
0.00200608
0.000738299
0.00166654
9.30446e-05
0.00137503
-0.000446924
0.00112623
-0.000893228
0.000911006
-0.00125867
0.000724971
-0.00155449
0.000566027
-0.00179031
0.000429477
-0.00197424
0.000312937
-0.00211373
0.000214041
-0.00221634
0.000129857
-0.00228777
5.96304e-05
-0.00232844
-2.06907e-06
-0.00234929
-4.9431e-05
-0.00235053
-9.05718e-05
-0.00233568
-0.000123753
-0.00230773
-0.000150289
-0.00226912
-0.000171216
-0.00222233
-0.0001862
-0.00216908
-0.000197588
-0.00211062
-0.000206389
-0.00204806
-0.000212906
-0.00198238
-0.000217437
-0.00191439
-0.000220352
-0.00184504
-0.000221
-0.00177573
-0.000217857
-0.00170868
-0.000208286
-0.00164585
-0.00019322
-0.00158896
-0.000173218
-0.00153852
-0.00015208
-0.00149305
-0.000135717
-0.00144907
-0.000129981
-0.00140052
-0.000142575
-0.00133937
-0.00017925
-0.00125585
-0.000245492
-0.00113915
-0.000344475
-0.000978678
-0.000476058
-0.000765133
-0.000636727
-0.000492264
-0.000817179
-0.000158967
-0.00100121
0.000224452
-0.00114871
0.000627769
-0.00119927
0.000992101
-0.0010621
0.00123521
-0.000676787
0.00129202
-0.000120526
0.00117351
0.00035746
0.000919713
0.000676494
0.000429545
0.00129051
-0.000597633
0.00283919
-0.00245431
0.00537107
-0.00487382
0.0072954
-0.00707123
0.00699881
-0.00723602
0.00097145
-0.00439003
-0.00844576
0.000626603
-0.0153315
0.0139757
-0.0474479
0.0267396
-0.039378
0.0175953
0.0383038
0.0064032
0.034686
0.00534759
0.00043784
0.0051153
0.000582483
0.00748708
-0.00805831
0.00777661
-0.00292835
0.00152961
0.0149957
-0.0138398
0.0435373
-0.033817
0.0624074
-0.0493055
0.0545817
-0.0548167
0.0253485
-0.0515384
-0.00503601
-0.0422194
-0.0285751
-0.0291013
-0.0434249
-0.015914
-0.0441953
-0.00589022
-0.0329989
0.00144451
-0.0234454
0.00599738
-0.0141964
0.00786077
-0.00574901
0.00794816
-8.94495e-05
0.00839794
-0.00113397
0.0102415
-0.00601115
0.0115971
-0.00575413
0.00844842
0.00772194
0.000670591
0.0236507
-0.00628622
0.0234776
-0.00774042
0.00660107
-0.00468167
-0.00917237
-0.00107074
-0.0116235
0.00147042
-0.00819329
0.00310928
-0.0053207
0.00402791
-0.00301269
0.00433834
-0.00109051
0.00416295
0.000615182
0.0036974
0.00185893
0.00326367
0.0021083
0.00366105
-1.0015e-05
0.00472722
-0.00203979
0.00764526
-0.0076009
0.0113915
-0.0106542
0.0168483
-0.0161546
0.0222671
-0.0163468
0.0294351
-0.0224923
-0.0206773
0.0615688
0.0292002
-0.0608864
0.0623903
0.0302465
0.062657
0.0310389
0.0616859
0.0311302
0.0591825
0.0302522
0.0552697
0.0284433
0.0503361
0.0259842
0.0448523
0.0231961
0.0392429
0.0203443
0.0338266
0.017614
0.0288037
0.0151154
0.0242725
0.0128993
0.0202589
0.010974
0.0167454
0.00932239
0.0136919
0.0079124
0.0110529
0.00671501
0.00877848
0.00569268
0.00682561
0.00482282
0.00515205
0.00407599
0.00372272
0.00343545
0.00250589
0.00288341
0.00147426
0.00240667
0.00060452
0.00199596
-0.000124111
0.0016396
-0.000732149
0.00133301
-0.00123325
0.0010673
-0.0016421
0.0008385
-0.00197105
0.000641822
-0.00223101
0.000473929
-0.00243164
0.000330464
-0.00258145
0.000209426
-0.00269152
0.000108004
-0.00276018
1.92403e-05
-0.00280082
-4.99331e-05
-0.00281626
-0.000108315
-0.00280966
-0.000156868
-0.00278522
-0.000195643
-0.00274669
-0.00022472
-0.0026968
-0.000247484
-0.0026376
-0.000265594
-0.00257091
-0.000279609
-0.00249831
-0.000290039
-0.00242116
-0.000297515
-0.0023409
-0.000301286
-0.0022594
-0.000299374
-0.00217954
-0.000288154
-0.00210392
-0.000268864
-0.00203477
-0.000242381
-0.00197288
-0.000213981
-0.00191657
-0.000192048
-0.00186162
-0.000184945
-0.00180063
-0.00020358
-0.00172373
-0.000256173
-0.00161887
-0.000350367
-0.00147286
-0.000490501
-0.00127279
-0.000676149
-0.0010074
-0.000902127
-0.00066912
-0.00115547
-0.000256329
-0.00141401
0.000219567
-0.00162462
0.000723699
-0.00170341
0.00118636
-0.00152476
0.00150597
-0.000996391
0.00159389
-0.00020845
0.00144869
0.000502654
0.00110695
0.00101823
0.000440555
0.0019569
-0.00091091
0.00419065
-0.00326792
0.00772808
-0.00624851
0.010276
-0.00883884
0.00958915
-0.00893237
0.00106497
-0.00540039
-0.0119778
0.000842951
-0.0215749
0.0146895
-0.0612944
0.0299576
-0.0546461
0.0222493
0.0460121
0.0089373
0.0479982
0.00697416
0.00240089
0.00654989
0.00100671
0.00915411
-0.0106625
0.00881976
-0.002594
-3.57448e-05
0.0238512
-0.0195745
0.063076
-0.0431641
0.0859969
-0.0597728
0.0711904
-0.064353
0.0299288
-0.0595116
-0.00987745
-0.0484998
-0.0395868
-0.0334283
-0.0584963
-0.0182546
-0.059369
-0.00655246
-0.044701
0.00221974
-0.0322176
0.00780881
-0.0197854
0.010163
-0.00810316
0.0103502
-0.000276692
0.0109314
-0.00171515
0.0130116
-0.00809132
0.0142295
-0.00697212
0.00996433
0.0119871
0.000540058
0.033075
-0.00739285
0.0314105
-0.00871975
0.00792796
-0.00499512
-0.012897
-0.000721371
-0.0158972
0.00230371
-0.0112184
0.0042504
-0.00726739
0.0053471
-0.00410939
0.00573438
-0.00147779
0.00559124
0.000758312
0.00519507
0.0022551
0.00491112
0.00239225
0.00573364
-0.000832537
0.00734915
-0.00365531
0.0112241
-0.0114758
0.0160048
-0.0154349
0.0228077
-0.0229575
0.0295468
-0.0230858
0.0382056
-0.0311512
-0.0290586
0.065332
0.0286891
-0.0648208
0.0659941
0.0295844
0.0665645
0.0304685
0.0665863
0.0311084
0.0656396
0.0311989
0.0635061
0.0305768
0.0602079
0.0292823
0.0559436
0.0274605
0.0510032
0.0252847
0.0456986
0.0229186
0.0403134
0.0205006
0.0350742
0.0181385
0.0301395
0.0159087
0.0256033
0.0138586
0.0215072
0.0120085
0.0178578
0.0103644
0.0146368
0.00891368
0.011816
0.00764364
0.00935947
0.00653255
0.00723163
0.00556333
0.00539726
0.00471781
0.00382363
0.00398032
0.00248098
0.00333863
0.00134159
0.00277899
0.000381394
0.00229323
-0.000422246
0.00187104
-0.00108932
0.00150565
-0.00163697
0.00118939
-0.00208105
0.000917944
-0.00243562
0.000685063
-0.00271288
0.000486752
-0.00292321
0.000318404
-0.00308146
0.000177566
-0.00318849
5.70961e-05
-0.00325515
-4.16496e-05
-0.0032907
-0.000121296
-0.00329696
-0.000189367
-0.00328021
-0.000241462
-0.0032447
-0.000282993
-0.00319371
-0.000316596
-0.00313004
-0.000343285
-0.00305622
-0.000363865
-0.00297436
-0.000379388
-0.00288657
-0.000389097
-0.00279536
-0.000390602
-0.00270442
-0.000379112
-0.00261705
-0.00035625
-0.00253616
-0.000323285
-0.00246293
-0.000287229
-0.00239554
-0.000259457
-0.00232912
-0.000251377
-0.00225494
-0.000277784
-0.00216124
-0.00034989
-0.00203372
-0.000477902
-0.00185673
-0.000667505
-0.00161502
-0.000917878
-0.00129533
-0.00122183
-0.000888618
-0.00156219
-0.000392478
-0.00191016
0.000181138
-0.00219824
0.000793622
-0.0023159
0.00136519
-0.00209633
0.0017741
-0.0014053
0.00190355
-0.000337897
0.00173206
0.000674145
0.00128639
0.00146389
0.000408502
0.00283478
-0.00131688
0.00591602
-0.00421989
0.0106311
-0.00777924
0.0138353
-0.0107343
0.0125442
-0.0107226
0.00105329
-0.00648772
-0.0162127
0.000982734
-0.0290454
0.0141847
-0.0744963
0.0318502
-0.0723116
0.0271202
0.050742
0.0119206
0.063198
0.00887989
0.00544151
0.00816405
0.00172251
0.0108318
-0.0133302
0.00953928
-0.00130147
-0.00230776
0.0356983
-0.0263473
0.0871155
-0.0530566
0.112706
-0.0699322
0.088066
-0.0731746
0.0331711
-0.0668562
-0.0161958
-0.054381
-0.052062
-0.037547
-0.0753302
-0.0205027
-0.0764133
-0.00716525
-0.0580385
0.00308696
-0.0424698
0.00983801
-0.0265365
0.0127952
-0.0110604
0.0131431
-0.000624595
0.0138496
-0.00242161
0.0160765
-0.0103182
0.0170134
-0.00790911
0.0115238
0.0174768
0.00049609
0.0441026
-0.00828869
0.0401953
-0.0094177
0.00905696
-0.00504203
-0.0172727
-0.000110541
-0.0208287
0.00340764
-0.0147365
0.00567429
-0.00953405
0.00696847
-0.00540357
0.0074678
-0.00197712
0.00740982
0.000816282
0.00716744
0.00249748
0.00712288
0.0024368
0.00847823
-0.00218789
0.0107351
-0.00591223
0.0156486
-0.0163893
0.0215538
-0.0213401
0.0297739
-0.0311777
0.0379582
-0.0312701
0.048166
-0.041359
-0.039004
0.069451
0.0282602
-0.0690221
0.0699492
0.0290861
0.0704776
0.0299401
0.0708341
0.030752
0.0707214
0.0313115
0.0698593
0.0314389
0.0680741
0.0310675
0.0653231
0.0302116
0.0616789
0.0289289
0.057298
0.0272995
0.0523858
0.0254128
0.0471657
0.0233587
0.0418527
0.0212217
0.0366335
0.0190778
0.031652
0.01699
0.0270075
0.0150089
0.0227556
0.0131656
0.0189199
0.0114794
0.0154987
0.0099538
0.0124758
0.00858623
0.00982588
0.00736776
0.00751918
0.00628704
0.00552477
0.00533306
0.00381123
0.00449254
0.00234901
0.00375546
0.00110987
0.00311022
6.82468e-05
0.00254728
-0.000801001
0.00205859
-0.0015184
0.00163533
-0.00210383
0.00127056
-0.00257487
0.000957881
-0.0029473
0.000690881
-0.00323427
0.000464553
-0.00345181
0.000274647
-0.00360859
0.000115137
-0.00370932
-2.05283e-05
-0.00377158
-0.000127092
-0.00379678
-0.000216265
-0.0037922
-0.000287576
-0.0037629
-0.0003459
-0.00371324
-0.000392946
-0.00364708
-0.000430038
-0.00356762
-0.000458855
-0.00347793
-0.000478808
-0.00338133
-0.000487224
-0.00328249
-0.000477965
-0.00318562
-0.000453138
-0.00309442
-0.000414499
-0.00301064
-0.000371029
-0.00293247
-0.000337647
-0.00285452
-0.000329345
-0.0027668
-0.000365526
-0.00265576
-0.000460951
-0.00250488
-0.0006288
-0.00229609
-0.000876309
-0.00201181
-0.00120218
-0.00163669
-0.00159696
-0.00116006
-0.00203883
-0.000578303
-0.00249193
9.67904e-05
-0.00287334
0.000824175
-0.00304328
0.00151503
-0.00278719
0.00202707
-0.00191734
0.00221047
-0.000521289
0.00201471
0.000869903
0.00144866
0.00202993
0.000321395
0.00396203
-0.00182776
0.00806517
-0.00531635
0.0141197
-0.00946113
0.0179801
-0.0127467
0.0158299
-0.0125947
0.000901229
-0.00766508
-0.0211424
0.000828135
-0.0375387
0.0122804
-0.0859484
0.0323604
-0.0923916
0.0320927
0.0510096
0.0153246
0.0799664
0.0110881
0.00967794
0.00996734
0.00284318
0.0124724
-0.0158352
0.00983956
0.00133138
-0.00549801
0.0510358
-0.0340736
0.115691
-0.0632176
0.14185
-0.0795602
0.104409
-0.0813481
0.034959
-0.0737828
-0.0237611
-0.0600761
-0.0657686
-0.0416147
-0.0937917
-0.0227548
-0.0952731
-0.00780836
-0.0729849
0.00397541
-0.0542536
0.0120563
-0.0346174
0.0157733
-0.0147774
0.0163674
-0.00121868
0.0171878
-0.00324202
0.0194532
-0.0125835
0.0199696
-0.0084255
0.0131846
0.0242617
0.000639639
0.0566476
-0.00888593
0.0497208
-0.0097816
0.00995263
-0.00478064
-0.0222737
0.000793825
-0.0264032
0.00483694
-0.0187797
0.00744357
-0.0121407
0.00896379
-0.00692379
0.00962302
-0.00263635
0.00970963
0.000729661
0.00970688
0.00250023
0.00997857
0.0021651
0.0119426
-0.00415194
0.0149061
-0.00887574
0.0208921
-0.0223754
0.0279949
-0.0284428
0.0376853
-0.040868
0.0474341
-0.041019
0.0592653
-0.0531901
-0.0505173
0.0738836
0.0278779
-0.0735012
0.0742855
0.0286842
0.0747153
0.0295103
0.0751044
0.0303629
0.075304
0.031112
0.0751184
0.0316245
0.0743584
0.0318275
0.0728805
0.0316895
0.0706084
0.0312011
0.0675357
0.0303722
0.0637197
0.0292287
0.0592709
0.0278076
0.0543397
0.0261529
0.0491017
0.0243159
0.0437386
0.022353
0.0384212
0.0203264
0.0332918
0.018295
0.0284579
0.0163133
0.023989
0.0144227
0.0199227
0.0126525
0.0162709
0.0110196
0.0130272
0.00953079
0.0101737
0.00818659
0.00768477
0.00698147
0.00553149
0.00590875
0.00368292
0.0049588
0.00210829
0.0041219
0.000778006
0.00338887
-0.000336087
0.00274945
-0.00126024
0.00219479
-0.00201837
0.00171609
-0.00263243
0.00130497
-0.003122
0.000954129
-0.00350404
0.000656694
-0.00379538
0.0004065
-0.00401471
0.000198811
-0.00416019
1.84069e-05
-0.00425677
-0.000119688
-0.00430765
-0.000236701
-0.00432004
-0.000333514
-0.00430078
-0.000412214
-0.00425569
-0.000475132
-0.00418956
-0.000525005
-0.00410674
-0.000561645
-0.00401165
-0.000582328
-0.00391023
-0.000579402
-0.00380779
-0.000555604
-0.00370903
-0.000513272
-0.00361652
-0.000463565
-0.00352867
-0.000425511
-0.00343981
-0.000418226
-0.00333888
-0.000466473
-0.00321072
-0.000589134
-0.00303674
-0.000802793
-0.00279659
-0.00111648
-0.00247038
-0.00152841
-0.0020406
-0.00202676
-0.00149463
-0.00258481
-0.000827103
-0.00315946
-4.87847e-05
-0.00365167
0.000798598
-0.00389067
0.00161856
-0.00360716
0.00224841
-0.00254719
0.00250039
-0.000773267
0.00228453
0.00108577
0.00158196
0.0027325
0.000165616
0.00537837
-0.00245484
0.0106856
-0.00655987
0.0182247
-0.0112856
0.0227059
-0.014864
0.0194083
-0.0145397
0.000576875
-0.00897117
-0.0267109
0.000152913
-0.0466628
0.00903991
-0.0948352
0.0317361
-0.115088
0.0370849
0.0456607
0.0191041
0.0979475
0.0136075
0.0151745
0.0119658
0.00448482
0.0140239
-0.0178932
0.00962698
0.00572827
-0.00962541
0.0702882
-0.0426281
0.148694
-0.0733257
0.172548
-0.0885748
0.119658
-0.0891121
0.0354963
-0.0805798
-0.0322934
-0.0658305
-0.0805179
-0.0458102
-0.113812
-0.0251241
-0.115959
-0.00857592
-0.089533
0.00479417
-0.0676236
0.0144132
-0.0442364
0.0190998
-0.019464
0.0200599
-0.00217879
0.0209847
-0.00416677
0.0231699
-0.0147687
0.023137
-0.00839258
0.0150232
0.0323755
0.00107885
0.070592
-0.00909702
0.0598967
-0.00975935
0.0106149
-0.0041648
-0.0278682
0.00205788
-0.0326259
0.00665335
-0.0233751
0.00962922
-0.0151166
0.0114125
-0.00870706
0.0122872
-0.00351112
0.0125777
0.000439241
0.0128879
0.00218998
0.013526
0.00152703
0.0161264
-0.00675238
0.0198238
-0.0125732
0.026859
-0.0294105
0.0352035
-0.0367873
0.0463875
-0.052052
0.0578032
-0.0524348
0.0713481
-0.066735
-0.0635947
0.0786337
0.0275285
-0.0782842
0.078985
0.0283329
0.0793446
0.0291507
0.0796886
0.0300189
0.0799538
0.0308468
0.0800379
0.0315405
0.0798143
0.0320512
0.079152
0.0323517
0.0779347
0.0324183
0.0760743
0.0322326
0.0735187
0.0317843
0.0702563
0.03107
0.0663188
0.0300904
0.0617824
0.0288523
0.0567643
0.0273712
0.0514145
0.0256762
0.0459
0.0238096
0.0403874
0.0218259
0.035025
0.0197851
0.0299315
0.017746
0.0251909
0.0157603
0.0208539
0.0138678
0.0169438
0.0120967
0.0134622
0.010463
0.0103964
0.00897461
0.00772315
0.00763203
0.00541368
0.00643138
0.00343623
0.00536635
0.0017579
0.00442784
0.000346368
0.0036064
-0.000829263
0.00289177
-0.00179816
0.00227388
-0.00258712
0.0017431
-0.00322029
0.00128988
-0.00371942
0.000905652
-0.00410354
0.000582959
-0.00439787
0.00031276
-0.0046034
8.5842e-05
-0.00474252
-9.75903e-05
-0.00482681
-0.000249221
-0.00486216
-0.000376864
-0.00485799
-0.000479314
-0.00482144
-0.00056157
-0.00475877
-0.000624337
-0.00467581
-0.000665309
-0.00458012
-0.000675103
-0.00447844
-0.000657309
-0.00437678
-0.00061495
-0.00427884
-0.000561523
-0.00418363
-0.00052074
-0.00408552
-0.000516354
-0.00397276
-0.000579261
-0.00382885
-0.000733065
-0.00363346
-0.000998204
-0.00336413
-0.00138583
-0.00299877
-0.00189378
-0.00251758
-0.00250797
-0.00190557
-0.00319683
-0.00115489
-0.00391015
-0.000273633
-0.00453294
0.00069626
-0.00486057
0.00165413
-0.00456502
0.00241704
-0.00331009
0.00275457
-0.0011108