/*--------------------------------*- C++ -*----------------------------------*\
| =========                 |                                                 |
| \\      /  F ield         | OpenFOAM: The Open Source CFD Toolbox           |
|  \\    /   O peration     | Version:  2412                                  |
|   \\  /    A nd           | Website:  www.openfoam.com                      |
|    \\/     M anipulation  |                                                 |
\*---------------------------------------------------------------------------*/
FoamFile
{
    version     2.0;
    format      ascii;
    arch        "LSB;label=32;scalar=64";
    class       volVectorField;
    location    "0.96";
    object      U_0;
}
// * * * * * * * * * * * * * * * * * * * * * * * * * * * * * * * * * * * * * //

dimensions      [0 1 -1 0 0 0 0];

internalField   nonuniform List<vector> 
12600
(
(19.0842 0 -0.615588)
(7.69263 -3.59548e-20 -1.58979)
(3.23442 -1.60912e-20 -1.63952)
(1.63286 0 -1.2021)
(1.02085 -2.2491e-22 -0.795991)
(0.694402 0 -0.535422)
(0.47592 -3.10181e-20 -0.369474)
(0.318424 0 -0.255795)
(0.201515 0 -0.173247)
(0.113203 0 -0.11141)
(0.044887 0 -0.065121)
(-0.00820916 -9.73168e-20 -0.0292058)
(-0.0494248 -9.92786e-20 -0.00093296)
(-0.0818623 0 0.0217458)
(-0.10716 2.01292e-19 0.0383922)
(-0.125677 0 0.0522151)
(-0.140135 3.0403e-22 0.0630094)
(-0.150402 0 0.0711409)
(-0.157757 9.66461e-20 0.0771494)
(-0.162595 0 0.0813001)
(-0.165324 0 0.0840056)
(-0.166095 0 0.085663)
(-0.16493 3.58698e-19 0.0866255)
(-0.162516 -3.46885e-19 0.0867158)
(-0.159603 -2.11058e-22 0.0858635)
(-0.156244 1.61773e-19 0.0841211)
(-0.151974 0 0.0823163)
(-0.147076 0 0.0803361)
(-0.141774 0 0.078034)
(-0.136359 -2.85919e-19 0.0754346)
(-0.130885 -5.51655e-19 0.0726483)
(-0.125307 0 0.0697877)
(-0.119697 0 0.066899)
(-0.114173 -2.47197e-19 0.0639946)
(-0.108777 -2.37777e-19 0.0610958)
(-0.103517 0 0.0582429)
(-0.0984241 0 0.0554789)
(-0.0935259 -4.23118e-19 0.0528132)
(-0.0888488 0 0.0502447)
(-0.0844009 6.93512e-23 0.0477773)
(-0.080149 -3.74544e-19 0.0454073)
(-0.0760746 -3.59588e-19 0.0431349)
(-0.072148 0 0.040942)
(-0.0683487 -3.30899e-19 0.0388107)
(-0.0646729 -3.1718e-19 0.036738)
(-0.0611162 6.08048e-19 0.0347275)
(-0.0577126 -5.82791e-19 0.032803)
(-0.0545151 0 0.030994)
(-0.0515842 5.348e-19 0.0293317)
(-0.0489909 -5.12058e-19 0.0278547)
(-0.0467746 0 0.0265862)
(-0.0449317 -2.93171e-23 0.025526)
(-0.0434092 4.48999e-19 0.0246451)
(-0.0420706 0 0.0238675)
(-0.0406907 -8.21907e-19 0.0230678)
(-0.0389352 0 0.0220576)
(-0.0363619 0 0.0205863)
(-0.0324557 4.78984e-23 0.0183102)
(-0.0266692 4.20865e-23 0.014961)
(-0.0185604 6.55867e-19 0.0103166)
(-0.0080663 -6.25784e-19 0.00436327)
(0.00449209 1.1927e-18 -0.00258342)
(0.0181411 0 -0.0102011)
(0.0314625 1.0785e-18 -0.0176898)
(0.0427051 1.02326e-18 -0.0240484)
(0.051249 -1.93902e-18 -0.0289139)
(0.057036 9.1744e-19 -0.0321764)
(0.0613988 0 -0.0346075)
(0.0656403 0 -0.0369882)
(0.0714666 0 -0.0403188)
(0.0802283 0 -0.0453185)
(0.0922816 0 -0.0522116)
(0.106556 -1.28953e-18 -0.060495)
(0.117397 1.21338e-18 -0.0670335)
(0.118374 0 -0.0679308)
(0.0976365 0 -0.056954)
(0.0537523 1.04097e-18 -0.0325773)
(0.00693905 -2.44303e-22 -0.00600676)
(-0.0317105 1.9382e-18 0.016184)
(-0.0565792 0 0.0304603)
(-0.0493161 0 0.0265294)
(-0.030076 0 0.015857)
(-0.00121154 -2.40837e-22 -0.0005898)
(0.0476637 0 -0.0279572)
(0.0911757 0 -0.0516999)
(0.117502 1.382e-18 -0.0664653)
(0.119507 4.3505e-22 -0.0669098)
(0.0762549 0 -0.0410148)
(0.0134332 0 -0.00452326)
(-0.0296411 -1.9561e-18 0.0200749)
(0.0133474 -1.77813e-18 -0.00438801)
(0.218919 -1.61105e-18 -0.118909)
(0.50381 -1.30718e-18 -0.282741)
(0.504653 1.9932e-21 -0.278887)
(1.43745 3.51995e-21 -0.811829)
(1.06702 4.12664e-19 -0.602623)
(0.756188 0 -0.431966)
(0.305232 0 -0.176426)
(-0.266637 0 0.147149)
(-0.0745878 1.68765e-18 0.0413026)
(-0.0844904 -6.91387e-19 0.0482563)
(-0.032782 7.78866e-19 0.015971)
(0.189198 6.79108e-19 -0.107833)
(0.0965746 0 -0.0564024)
(0.18819 0 -0.107977)
(0.286836 0 -0.162138)
(0.201529 8.37602e-19 -0.107913)
(-0.173194 0 0.112694)
(-0.796777 -1.79166e-19 0.468755)
(-1.43676 0 0.821992)
(-1.86626 0 1.06018)
(-2.00427 9.70645e-19 1.13625)
(-1.81138 0 1.02135)
(-1.42918 0 0.802635)
(-1.06507 0 0.594784)
(-0.684827 -4.70164e-18 0.380461)
(-0.220539 0 0.120366)
(0.00285117 4.35473e-18 -0.0041284)
(-0.0851334 0 0.0467121)
(0.120328 -1.99515e-22 -0.0681785)
(30.5331 -1.55289e-20 -0.93446)
(21.2124 2.05268e-20 -3.3333)
(13.388 1.3182e-20 -4.20879)
(8.44883 0 -3.63533)
(5.60793 -1.32708e-20 -2.72969)
(3.89568 2.36073e-20 -1.99047)
(2.78554 3.2357e-20 -1.45223)
(2.01254 -3.75091e-20 -1.05906)
(1.44631 0 -0.764205)
(1.01801 0 -0.537929)
(0.687 0 -0.362329)
(0.428036 0 -0.223695)
(0.223566 0 -0.113244)
(0.0592357 0 -0.0245893)
(-0.0698395 -6.86665e-22 0.0472248)
(-0.171615 0 0.103047)
(-0.25367 1.03785e-19 0.147932)
(-0.317206 0 0.183227)
(-0.366556 -2.00818e-19 0.210552)
(-0.403749 1.97172e-19 0.23101)
(-0.430725 0 0.245997)
(-0.449045 1.90209e-19 0.256423)
(-0.460049 -1.86125e-19 0.262901)
(-0.465516 1.79887e-19 0.265814)
(-0.466764 -1.73293e-19 0.265638)
(-0.463501 0 0.264019)
(-0.457313 1.6363e-19 0.259534)
(-0.448141 0 0.254399)
(-0.436893 0 0.248163)
(-0.424149 0 0.240947)
(-0.410282 2.85247e-19 0.233016)
(-0.395486 0 0.224661)
(-0.380126 0 0.21605)
(-0.364541 0 0.207281)
(-0.348901 0 0.198438)
(-0.333345 0 0.189654)
(-0.318067 0 0.181058)
(-0.303195 4.35337e-19 0.172694)
(-0.288807 0 0.164586)
(-0.274952 8.01281e-19 0.15675)
(-0.261577 7.68582e-19 0.149177)
(-0.248666 3.68522e-19 0.141865)
(-0.236146 0 0.134764)
(-0.223953 0 0.127834)
(-0.212081 6.48339e-19 0.121075)
(-0.200539 -6.20855e-19 0.114504)
(-0.189448 5.94295e-19 0.108205)
(-0.178985 0 0.102278)
(-0.169341 -5.44154e-19 0.0968307)
(-0.160741 0 0.0919899)
(-0.153322 0 0.0878264)
(-0.147079 -4.7578e-19 0.0843309)
(-0.141851 0 0.0813953)
(-0.137211 0 0.0787529)
(-0.13245 8.30416e-19 0.0759739)
(-0.126511 0 0.0724351)
(-0.117997 0 0.0673275)
(-0.10523 8.17796e-23 0.0596475)
(-0.0865238 6.9024e-19 0.0484796)
(-0.060512 -5.90648e-23 0.0331144)
(-0.0269862 0 0.0135549)
(0.0129733 -1.19367e-18 -0.00931002)
(0.0563875 -1.1344e-18 -0.0342065)
(0.0988437 0 -0.058431)
(0.13482 -2.0395e-18 -0.0788319)
(0.162181 -1.49556e-22 -0.0942975)
(0.180599 0 -0.104655)
(0.194202 8.60851e-19 -0.11241)
(0.207367 0 -0.120056)
(0.225789 0 -0.130938)
(0.25416 0 -0.147589)
(0.294165 0 -0.170915)
(0.343285 2.53983e-18 -0.199176)
(0.3845 -1.19333e-18 -0.222351)
(0.397272 0 -0.227976)
(0.342636 0 -0.194677)
(0.210552 1.01842e-18 -0.117459)
(0.0611353 -3.92583e-22 -0.0316316)
(-0.0666294 -4.31944e-22 0.0412934)
(-0.150118 0 0.0875772)
(-0.132621 0 0.0751504)
(-0.077431 0 0.0422584)
(0.0100274 -3.88464e-22 -0.00978521)
(0.159725 -1.52618e-18 -0.0963866)
(0.290095 1.43373e-18 -0.170022)
(0.366485 -1.33529e-18 -0.212656)
(0.360235 6.56711e-22 -0.206295)
(0.202241 -1.1344e-18 -0.112025)
(-0.0143234 0 0.0127575)
(-0.160216 1.88015e-18 0.0918713)
(-0.0205046 0 0.00346433)
(0.584456 1.54471e-18 -0.355863)
(1.51848 0 -0.885468)
(1.43143 -2.1574e-18 -0.859769)
(4.43537 -7.32597e-19 -2.58236)
(3.40912 0 -1.93763)
(2.52566 0 -1.43105)
(1.08655 -5.72058e-19 -0.59145)
(-0.746969 7.12304e-19 0.444819)
(-0.236942 -1.6036e-18 0.12912)
(-0.265582 6.56635e-19 0.153067)
(-0.0735688 -7.39055e-19 0.0321422)
(0.610457 0 -0.355896)
(0.345424 6.05743e-19 -0.19866)
(0.614138 0 -0.360379)
(0.865928 0 -0.501352)
(0.476529 -7.98844e-19 -0.262445)
(-0.840682 0 0.513905)
(-2.81258 -2.74322e-21 1.66151)
(-4.66359 1.4202e-19 2.72304)
(-5.78983 0 3.36309)
(-6.02251 0 3.48445)
(-5.33884 0 3.07433)
(-4.14288 1.80424e-18 2.37941)
(-3.03429 -4.18712e-18 1.73709)
(-1.9368 4.41998e-18 1.09878)
(-0.612446 0 0.334336)
(0.0774542 -4.09019e-18 -0.0468024)
(-0.229184 0 0.129701)
(0.371191 7.2754e-18 -0.219712)
(34.1423 3.30128e-20 -0.774048)
(29.5493 -8.88207e-21 -2.89624)
(22.9932 -4.67901e-21 -4.59459)
(16.8329 0 -4.95204)
(12.0929 -1.54451e-20 -4.41853)
(8.76725 5.7789e-22 -3.60419)
(6.46081 0 -2.83065)
(4.81371 3.56019e-20 -2.18609)
(3.59602 0 -1.66754)
(2.67036 4.27981e-20 -1.252)
(1.95212 0 -0.917482)
(1.38599 0 -0.647032)
(0.935002 0 -0.427442)
(0.571557 0 -0.248915)
(0.28149 -9.87345e-20 -0.0995913)
(0.046668 0 0.0178489)
(-0.142862 0 0.114451)
(-0.294258 0 0.1919)
(-0.415006 9.51263e-20 0.253901)
(-0.509596 -4.1221e-22 0.302636)
(-0.582293 0 0.340465)
(-0.636783 -7.5839e-22 0.368961)
(-0.675862 0 0.389287)
(-0.702428 -1.69143e-19 0.402574)
(-0.718517 0 0.409833)
(-0.725836 0 0.412704)
(-0.726275 -1.5521e-19 0.410644)
(-0.719996 0 0.406024)
(-0.708839 0 0.399193)
(-0.693931 -2.79825e-19 0.390185)
(-0.675941 0 0.379702)
(-0.655516 0 0.368076)
(-0.633386 0 0.355657)
(-0.610191 0 0.342683)
(-0.58631 2.32119e-19 0.329339)
(-0.562081 0 0.315862)
(-0.537916 0 0.302481)
(-0.514096 -4.12117e-19 0.289295)
(-0.490787 0 0.27638)
(-0.468115 -7.58636e-19 0.263781)
(-0.446046 -7.38969e-23 0.251493)
(-0.424595 -3.48898e-19 0.239524)
(-0.403675 0 0.227808)
(-0.383191 0 0.216306)
(-0.363154 -3.06728e-19 0.205036)
(-0.343595 0 0.194045)
(-0.324731 -5.62179e-19 0.183486)
(-0.306868 0 0.173535)
(-0.29033 6.108e-23 0.164384)
(-0.275501 0 0.156242)
(-0.262621 0 0.149218)
(-0.251699 0 0.143282)
(-0.242474 -4.29611e-19 0.138232)
(-0.234248 0 0.133596)
(-0.225843 0 0.128628)
(-0.215505 0 0.122265)
(-0.200906 0 0.113154)
(-0.179222 1.36522e-18 0.0997131)
(-0.147678 0 0.0804283)
(-0.104011 -4.82294e-23 0.0541842)
(-0.0478466 0 0.0210845)
(0.0190089 5.62846e-19 -0.0174523)
(0.0917526 1.06957e-18 -0.0590546)
(0.163098 0 -0.0991646)
(0.223836 1.92227e-18 -0.132717)
(0.27014 9.09133e-19 -0.157981)
(0.301274 0 -0.174863)
(0.323969 -8.10709e-19 -0.18756)
(0.345766 0 -0.200246)
(0.376462 0 -0.218694)
(0.424398 0 -0.247343)
(0.49308 0 -0.287994)
(0.579419 2.37306e-22 -0.337715)
(0.656279 1.12223e-18 -0.380148)
(0.689789 0 -0.394555)
(0.613528 0 -0.343999)
(0.40332 -2.42788e-22 -0.219391)
(0.153791 -1.84184e-18 -0.0771064)
(-0.0661075 -8.87796e-19 0.0462561)
(-0.212441 0 0.123798)
(-0.1915 0 0.10442)
(-0.107694 0 0.0528786)
(0.0321108 -3.0212e-18 -0.0318832)
(0.274812 8.1432e-23 -0.171965)
(0.483189 -1.34495e-18 -0.286728)
(0.601362 0 -0.348091)
(0.575593 -1.15974e-18 -0.321953)
(0.287737 1.06349e-18 -0.144872)
(-0.0931569 0 0.0740523)
(-0.344817 0 0.200822)
(-0.106515 1.60183e-18 0.036725)
(0.836856 0 -0.536666)
(2.41932 1.17917e-18 -1.41335)
(2.16405 -2.56711e-21 -1.34679)
(7.16808 6.9484e-19 -4.18647)
(5.70492 -3.76103e-19 -3.18907)
(4.38306 0 -2.43773)
(1.99097 5.3535e-19 -1.0262)
(-1.1048 -6.66502e-19 0.676666)
(-0.393452 1.49956e-18 0.204678)
(-0.435537 0 0.246661)
(-0.0909792 -6.89771e-19 0.015994)
(1.0299 0 -0.605229)
(0.623689 -5.66413e-19 -0.359312)
(1.03959 5.53023e-19 -0.616676)
(1.37852 0 -0.786591)
(0.579419 7.46717e-19 -0.266828)
(-1.76498 0 1.14015)
(-5.02259 3.23208e-19 3.02978)
(-7.86211 -1.32713e-19 4.6188)
(-9.42392 0 5.45477)
(-9.54963 0 5.4762)
(-8.34678 0 4.72146)
(-6.40561 -5.6462e-21 3.59493)
(-4.64261 3.91111e-18 2.58355)
(-2.94522 -4.11692e-18 1.60668)
(-0.91986 0 0.459347)
(0.203465 -3.818e-18 -0.130736)
(-0.336236 0 0.182007)
(0.608597 2.4902e-22 -0.365922)
(34.7766 -1.73228e-20 -0.953887)
(33.4519 -4.91728e-21 -2.21669)
(29.6081 7.63407e-21 -3.99683)
(24.4769 -1.53188e-20 -5.12575)
(19.3466 -2.1412e-20 -5.32008)
(14.9649 -4.48144e-20 -4.87371)
(11.5108 0 -4.16304)
(8.86228 0 -3.42011)
(6.82872 0 -2.74351)
(5.24861 -4.05401e-20 -2.16029)
(4.00434 0 -1.66856)
(3.01268 0 -1.25754)
(2.21504 0 -0.914984)
(1.56772 0 -0.630328)
(1.04257 0 -0.391457)
(0.614647 -9.25701e-20 -0.195911)
(0.265339 9.20261e-20 -0.0331888)
(-0.0187899 0 0.0997322)
(-0.248978 0 0.20845)
(-0.433917 -1.76851e-19 0.295896)
(-0.580543 1.73252e-19 0.365966)
(-0.695145 -1.70222e-19 0.420988)
(-0.782582 1.64785e-19 0.463133)
(-0.847768 1.60167e-19 0.494076)
(-0.894212 -1.55696e-19 0.515539)
(-0.92497 1.51657e-19 0.528632)
(-0.941559 0 0.535705)
(-0.947745 -1.4223e-19 0.535689)
(-0.945089 0 0.531175)
(-0.934694 2.64843e-19 0.523708)
(-0.918361 0 0.513232)
(-0.897159 0 0.500627)
(-0.872323 0 0.486384)
(-0.844915 -2.28284e-19 0.470896)
(-0.81562 -2.19575e-19 0.454487)
(-0.785056 0 0.437536)
(-0.753913 0 0.420405)
(-0.72269 3.89706e-19 0.403265)
(-0.691697 0 0.386258)
(-0.661185 9.88222e-23 0.369479)
(-0.631182 -3.4385e-19 0.352942)
(-0.601768 0 0.336687)
(-0.572878 0 0.320645)
(-0.544417 0 0.304792)
(-0.516428 0 0.289181)
(-0.488988 -5.54584e-19 0.273901)
(-0.462412 0 0.259184)
(-0.437143 5.07827e-19 0.245292)
(-0.413647 4.85741e-19 0.232497)
(-0.392464 0 0.22109)
(-0.37395 0 0.211213)
(-0.358133 0 0.20281)
(-0.344667 4.05319e-19 0.195577)
(-0.332593 -3.87139e-19 0.188836)
(-0.320286 -7.39473e-19 0.181524)
(-0.305323 0 0.172134)
(-0.284501 -6.74077e-19 0.158768)
(-0.253942 -1.2867e-18 0.139222)
(-0.209819 0 0.111469)
(-0.148998 -1.17009e-18 0.0740734)
(-0.0709288 0 0.0272959)
(0.0220193 -5.30088e-19 -0.0267486)
(0.123308 -1.0072e-18 -0.0846464)
(0.222935 0 -0.14012)
(0.308193 -9.04727e-19 -0.186318)
(0.373449 -8.55809e-19 -0.220959)
(0.417446 0 -0.244039)
(0.449201 0 -0.261483)
(0.47936 0 -0.279228)
(0.521866 6.77191e-19 -0.30554)
(0.589021 6.36825e-19 -0.346684)
(0.686638 0 -0.405434)
(0.8119 -1.12284e-18 -0.477769)
(0.929204 -1.05466e-18 -0.541412)
(0.992806 0 -0.567501)
(0.909209 0 -0.503742)
(0.634446 -8.98368e-19 -0.335984)
(0.290332 3.63558e-22 -0.139248)
(-0.0235348 0 0.0345517)
(-0.237415 0 0.142993)
(-0.221501 0 0.118645)
(-0.118166 0 0.0518125)
(0.065823 3.31186e-22 -0.0636624)
(0.391078 1.34257e-18 -0.253211)
(0.666185 0 -0.401591)
(0.815146 0 -0.473853)
(0.756468 0 -0.416669)
(0.323588 9.97797e-19 -0.145508)
(-0.229117 0 0.170262)
(-0.581297 1.65373e-18 0.336072)
(-0.241136 -1.50004e-18 0.0836479)
(0.965599 1.36063e-18 -0.679379)
(3.16624 -1.10388e-18 -1.87612)
(2.70617 1.90141e-18 -1.78115)
(9.49211 -6.50282e-19 -5.62145)
(7.87225 3.51928e-19 -4.36441)
(6.29892 0 -3.45116)
(3.03237 0 -1.48769)
(-1.30776 -6.19289e-19 0.854071)
(-0.537357 -7.01076e-19 0.270732)
(-0.585527 -5.73445e-19 0.32755)
(-0.0826733 7.54967e-22 -0.0240644)
(1.44127 0 -0.857623)
(0.929964 0 -0.534565)
(1.45431 -5.16913e-19 -0.871542)
(1.79755 0 -1.01706)
(0.469095 -7.05091e-19 -0.13694)
(-2.96869 0 1.94928)
(-7.38979 2.01554e-21 4.51763)
(-10.9204 0 6.46771)
(-12.6166 -3.73611e-19 7.3337)
(-12.4582 7.69697e-19 7.14591)
(-10.7312 1.24844e-18 6.04922)
(-8.15262 -6.52811e-21 4.54618)
(-5.85755 0 3.22979)
(-3.68769 3.8447e-18 1.97263)
(-1.13422 3.85242e-18 0.523832)
(0.377084 3.56512e-18 -0.2391)
(-0.403498 0 0.215254)
(0.831812 2.93487e-22 -0.511853)
(34.4339 0 -1.43435)
(34.5421 -3.58125e-21 -1.99117)
(33.0233 0 -3.31434)
(29.8783 1.44732e-20 -4.63135)
(25.7553 3.40369e-20 -5.39958)
(21.4167 2.1791e-20 -5.52126)
(17.4079 0 -5.16596)
(13.9712 0 -4.55882)
(11.1325 -3.49556e-20 -3.87107)
(8.82227 -3.77298e-20 -3.19953)
(6.9473 3.98604e-20 -2.58725)
(5.42165 8.28132e-20 -2.04778)
(4.17515 8.49326e-20 -1.58088)
(3.15167 0 -1.18146)
(2.31043 0 -0.83981)
(1.61755 1.7466e-19 -0.552595)
(1.04593 -3.3662e-22 -0.310398)
(0.575534 0 -0.108019)
(0.189092 -8.45112e-20 0.0603133)
(-0.126289 -1.66258e-19 0.198986)
(-0.381598 -1.63797e-19 0.312212)
(-0.58664 0 0.403446)
(-0.748911 -1.55776e-19 0.475489)
(-0.875247 1.51245e-19 0.531133)
(-0.970812 1.47166e-19 0.573143)
(-1.04024 8.44106e-23 0.603955)
(-1.08797 0 0.62512)
(-1.11798 2.50341e-22 0.636744)
(-1.13333 0 0.639545)
(-1.13668 2.49729e-19 0.635821)
(-1.12921 0 0.628821)
(-1.11341 0 0.617929)
(-1.09107 0 0.604241)
(-1.06379 2.15616e-19 0.588324)
(-1.0327 0 0.570649)
(-0.998804 0 0.551774)
(-0.963148 0 0.532222)
(-0.926536 0 0.512256)
(-0.88949 -3.52698e-19 0.492112)
(-0.852445 6.76587e-19 0.471942)
(-0.815546 0 0.45181)
(-0.778983 3.10974e-19 0.431802)
(-0.742758 0 0.411867)
(-0.706808 0 0.392014)
(-0.671236 0 0.372345)
(-0.636178 8.71202e-23 0.353013)
(-0.602062 0 0.334342)
(-0.569476 -4.78829e-19 0.31668)
(-0.53903 0 0.300388)
(-0.511428 0 0.285835)
(-0.487151 -4.18256e-19 0.273188)
(-0.466257 0 0.262355)
(-0.448331 0 0.252924)
(-0.432181 4.31194e-23 0.243995)
(-0.415762 6.96495e-19 0.23418)
(-0.396024 0 0.221535)
(-0.368932 7.62511e-23 0.203631)
(-0.329609 1.21117e-18 0.177704)
(-0.273242 0 0.141252)
(-0.195879 5.50552e-19 0.0925964)
(-0.0967584 0 0.0322144)
(0.0212714 4.98681e-19 -0.037071)
(0.150148 9.47355e-19 -0.110733)
(0.277416 0 -0.180835)
(0.387072 8.50872e-19 -0.238923)
(0.471528 -1.35901e-22 -0.282288)
(0.528793 0 -0.311143)
(0.569803 0 -0.333142)
(0.608235 0 -0.355941)
(0.662144 -1.27244e-18 -0.390309)
(0.747944 1.59672e-22 -0.444322)
(0.874146 0 -0.521797)
(1.03908 1.05468e-18 -0.617589)
(1.20049 1.98014e-18 -0.704106)
(1.3025 0 -0.745183)
(1.22659 0 -0.672918)
(0.902785 0 -0.467877)
(0.4717 3.61251e-22 -0.220506)
(0.0629796 0 0.00276841)
(-0.223951 0 0.141455)
(-0.223014 0 0.114783)
(-0.110143 0 0.0369868)
(0.109448 1.3272e-18 -0.105652)
(0.506429 1.25789e-18 -0.338754)
(0.8365 0 -0.51188)
(1.00506 0 -0.584405)
(0.900589 0 -0.482297)
(0.310291 7.20882e-22 -0.105404)
(-0.417058 0 0.30697)
(-0.857962 -1.54812e-18 0.496971)
(-0.412168 0 0.142525)
(0.982608 -1.27339e-18 -0.779296)
(3.74044 0 -2.24309)
(3.13417 -8.90839e-19 -2.18577)
(11.3141 0 -6.79471)
(9.83672 0 -5.40246)
(8.2314 0 -4.44323)
(4.21817 0 -1.97428)
(-1.34332 5.79059e-19 0.961665)
(-0.663548 0 0.324859)
(-0.709337 5.36081e-19 0.388672)
(-0.0535648 6.02156e-19 -0.0918033)
(1.84091 0 -1.10925)
(1.2599 0 -0.723941)
(1.84937 0 -1.11686)
(2.1105 0 -1.16678)
(0.143955 -3.65662e-21 0.166032)
(-4.41519 0 2.96151)
(-9.82978 -2.89162e-19 6.09098)
(-13.7323 0 8.18297)
(-15.3055 6.91896e-19 8.8872)
(-14.7572 -7.18882e-19 8.39483)
(-12.5501 -1.16595e-18 6.9745)
(-9.45876 -1.45907e-18 5.17393)
(-6.75594 0 3.63583)
(-4.21765 0 2.17145)
(-1.27314 -7.19211e-18 0.517688)
(0.584227 3.32686e-18 -0.374157)
(-0.436703 3.22269e-18 0.224191)
(1.04595 -2.96139e-18 -0.656592)
(33.9862 0 -1.89277)
(34.3907 3.31182e-20 -2.11015)
(34.1758 0 -2.8974)
(32.7956 0 -3.99029)
(30.2365 0 -4.96252)
(26.872 0 -5.53107)
(23.18 0 -5.63318)
(19.5498 3.03111e-20 -5.35781)
(16.2211 3.29837e-20 -4.84608)
(13.2995 7.10922e-20 -4.22416)
(10.7994 -7.5036e-20 -3.57909)
(8.68801 -7.81643e-20 -2.96099)
(6.91596 -8.01695e-20 -2.39409)
(5.43196 0 -1.88812)
(4.19147 0 -1.44223)
(3.1555 -1.64143e-19 -1.05634)
(2.29063 -1.63353e-19 -0.724188)
(1.57018 0 -0.441029)
(0.971354 7.97758e-20 -0.201378)
(0.476262 1.56938e-19 0.000375323)
(0.0688498 0 0.167841)
(-0.263931 1.50063e-19 0.305868)
(-0.533079 0 0.41792)
(-0.74826 2.87538e-23 0.507585)
(-0.917327 -1.39153e-19 0.578009)
(-1.04722 -7.06325e-23 0.63188)
(-1.1438 0 0.671848)
(-1.21255 1.26586e-19 0.700453)
(-1.25886 -2.4372e-19 0.717682)
(-1.28563 -4.71016e-19 0.724659)
(-1.29707 -2.27423e-19 0.72268)
(-1.29461 0 0.716807)
(-1.28139 -2.11209e-19 0.706441)
(-1.25985 0 0.692458)
(-1.23166 0 0.675586)
(-1.19833 0 0.656579)
(-1.16138 0 0.636153)
(-1.12203 0 0.614688)
(-1.0811 1.19626e-22 0.59253)
(-1.03929 -3.1882e-19 0.569917)
(-0.996916 0 0.546982)
(-0.954345 -5.86031e-19 0.523881)
(-0.911701 0 0.500597)
(-0.868992 0 0.477195)
(-0.826412 0 0.453849)
(-0.784184 4.92604e-19 0.430786)
(-0.742855 0 0.40844)
(-0.703172 0 0.387253)
(-0.665896 0 0.367678)
(-0.631901 0 0.350158)
(-0.601801 7.8737e-19 0.33488)
(-0.575707 0 0.321705)
(-0.553153 0 0.310101)
(-0.532742 3.43112e-19 0.29894)
(-0.512047 0 0.2865)
(-0.487439 0 0.270399)
(-0.454109 1.19364e-18 0.247697)
(-0.406257 -5.69441e-19 0.215107)
(-0.338146 0 0.169725)
(-0.245042 0 0.109719)
(-0.125936 0 0.0358637)
(0.0159593 -4.68639e-19 -0.0482822)
(0.171273 0 -0.137078)
(0.325402 0 -0.221031)
(0.459269 -1.59863e-18 -0.290285)
(0.563208 1.51158e-18 -0.341829)
(0.634274 0 -0.376164)
(0.684906 0 -0.402639)
(0.731633 0 -0.430585)
(0.796475 5.97217e-19 -0.473245)
(0.900031 -5.61427e-19 -0.540399)
(1.0538 -1.0548e-18 -0.636935)
(1.25803 -9.89414e-19 -0.756559)
(1.46583 -9.28729e-19 -0.867039)
(1.61387 8.74112e-19 -0.925219)
(1.56106 0 -0.849574)
(1.20639 0 -0.613541)
(0.6993 7.59297e-19 -0.319968)
(0.196758 0 -0.0486094)
(-0.168715 0 0.120505)
(-0.194384 0 0.0947395)
(-0.0834729 0 0.0101349)
(0.161753 0 -0.15665)
(0.618563 -2.35601e-18 -0.427243)
(0.991092 0 -0.615919)
(1.16638 -1.03112e-18 -0.678037)
(1.0025 0 -0.517309)
(0.244819 7.29736e-22 -0.0248056)
(-0.654754 1.59638e-18 0.479873)
(-1.16561 0 0.672042)
(-0.609423 0 0.205755)
(0.898388 0 -0.846894)
(4.10895 0 -2.50934)
(3.54366 8.38361e-19 -2.62056)
(12.5307 0 -7.67391)
(11.4917 0 -6.26856)
(10.1128 0 -5.3829)
(5.54399 0 -2.47999)
(-1.19371 0 1.00407)
(-0.764027 0 0.366659)
(-0.798428 0 0.426456)
(-0.00541212 0 -0.18466)
(2.22289 -4.92982e-19 -1.35902)
(1.61016 0 -0.923465)
(2.21394 0 -1.34419)
(2.29397 0 -1.22679)
(-0.411204 6.18802e-19 0.63965)
(-6.074 0 4.14162)
(-12.247 1.35752e-19 7.68163)
(-16.177 0 9.69613)
(-17.4091 -6.60344e-21 10.1123)
(-16.4259 0 9.30342)
(-13.8267 1.07369e-18 7.59975)
(-10.3572 0 5.57627)
(-7.37314 0 3.88613)
(-4.56733 0 2.26357)
(-1.34476 3.3564e-18 0.459376)
(0.81936 -6.2108e-18 -0.524243)
(-0.435247 -6.01636e-18 0.215324)
(1.25414 -2.76502e-18 -0.804256)
(33.6595 0 -2.1852)
(33.9549 -3.54469e-20 -2.31788)
(34.1818 0 -2.75287)
(33.848 0 -3.51006)
(32.6466 -2.74008e-20 -4.38782)
(30.5751 -2.69287e-20 -5.13323)
(27.8337 2.7797e-20 -5.57934)
(24.7006 -8.7534e-20 -5.67868)
(21.4486 0 -5.47368)
(18.2935 1.88491e-23 -5.05037)
(15.3742 3.52579e-20 -4.49962)
(12.7589 0 -3.89545)
(10.4654 0 -3.2888)
(8.48097 0 -2.7114)
(6.77935 0 -2.17865)
(5.32939 3.18908e-22 -1.69976)
(4.09903 2.69233e-22 -1.27567)
(3.0593 7.58504e-20 -0.905138)
(2.18391 7.48009e-20 -0.584821)
(1.45046 0 -0.310277)
(0.839051 -1.44218e-19 -0.0777176)
(0.332521 -1.41438e-19 0.117716)
(-0.0839623 0 0.27977)
(-0.423213 -3.1195e-23 0.41268)
(-0.696204 6.53752e-23 0.520127)
(-0.912587 -1.27479e-19 0.605489)
(-1.08093 0 0.67154)
(-1.20872 0 0.720967)
(-1.30192 2.29636e-19 0.75674)
(-1.36642 1.34978e-22 0.781012)
(-1.40731 4.28413e-19 0.792659)
(-1.42865 0 0.793496)
(-1.43332 3.97754e-19 0.789355)
(-1.42466 0 0.78017)
(-1.40539 0 0.766495)
(-1.37764 -1.76749e-19 0.74945)
(-1.34356 0 0.729973)
(-1.30492 -3.26084e-19 0.708577)
(-1.26293 1.16644e-22 0.685749)
(-1.21866 2.99957e-19 0.661832)
(-1.17271 0 0.637057)
(-1.12567 7.05203e-23 0.611675)
(-1.07786 0 0.585726)
(-1.02942 0 0.559353)
(-0.980656 0 0.532819)
(-0.931921 0 0.506449)
(-0.883894 0 0.480799)
(-0.837495 4.23928e-19 0.456415)
(-0.793646 0 0.433841)
(-0.753395 0 0.413598)
(-0.717511 -3.70153e-19 0.395882)
(-0.68617 0 0.380501)
(-0.658885 -3.37668e-19 0.366792)
(-0.634086 -3.2242e-19 0.35339)
(-0.609009 6.15584e-19 0.338239)
(-0.579496 0 0.318523)
(-0.540039 -5.60724e-19 0.290808)
(-0.483994 -5.34826e-19 0.251329)
(-0.404775 0 0.196847)
(-0.296912 0 0.125468)
(-0.159098 0 0.0383342)
(0.00522399 4.40024e-19 -0.0602035)
(0.185617 0 -0.163423)
(0.365683 0 -0.260393)
(0.523542 7.50243e-19 -0.340034)
(0.647346 -1.41875e-18 -0.399163)
(0.73294 0 -0.438649)
(0.793771 0 -0.469525)
(0.848935 0 -0.502721)
(0.924167 0 -0.553887)
(1.04421 -5.26788e-19 -0.634327)
(1.2237 9.88985e-19 -0.749963)
(1.46552 0 -0.893255)
(1.72036 0 -1.02812)
(1.9203 -8.19219e-19 -1.10496)
(1.90597 0 -1.031)
(1.54099 -7.39231e-19 -0.770992)
(0.972403 7.10575e-19 -0.436925)
(0.379475 0 -0.119753)
(-0.0704316 0 0.0794569)
(-0.135707 0 0.0584949)
(-0.0390507 0 -0.0280477)
(0.221106 0 -0.215647)
(0.72526 1.10266e-18 -0.517242)
(1.12764 0 -0.711813)
(1.29591 1.9303e-18 -0.751617)
(1.05944 0 -0.517153)
(0.127601 7.2131e-22 0.0988192)
(-0.935354 1.3995e-21 0.68687)
(-1.48846 0 0.856038)
(-0.822235 1.23218e-18 0.268591)
(0.730879 0 -0.888045)
(4.2516 0 -2.66325)
(4.02764 -1.57024e-18 -3.12885)
(13.103 0 -8.22133)
(12.7404 0 -6.91815)
(11.8546 0 -6.22967)
(6.99125 0 -2.99265)
(-0.851765 0 0.981821)
(-0.828306 0 0.394439)
(-0.845621 0 0.435651)
(0.0589178 0 -0.302185)
(2.58148 4.60568e-19 -1.60417)
(1.97522 0 -1.13068)
(2.53689 0 -1.54331)
(2.3338 0 -1.1754)
(-1.18945 -5.84688e-19 1.29623)
(-7.88508 -3.31286e-19 5.46463)
(-14.5308 -1.28111e-19 9.21982)
(-18.1646 8.8875e-20 10.9397)
(-18.9448 -6.78984e-21 10.9796)
(-17.5771 -6.03408e-19 9.85771)
(-14.6869 -1.99705e-18 7.93797)
(-10.9601 0 5.76736)
(-7.79985 2.93245e-18 3.99279)
(-4.8112 3.10819e-18 2.26739)
(-1.36833 0 0.353212)
(1.07192 2.89844e-18 -0.68854)
(-0.402989 2.80772e-18 0.187203)
(1.46186 2.58093e-18 -0.956547)
(33.4195 0 -2.34469)
(33.5753 1.75443e-20 -2.48566)
(33.8198 0 -2.76126)
(33.8965 0 -3.25335)
(33.5203 2.58007e-20 -3.91795)
(32.5209 2.53508e-20 -4.61829)
(30.8673 -2.61635e-20 -5.20452)
(28.6424 8.4533e-20 -5.57038)
(26.0017 0 -5.67374)
(23.1287 3.18766e-20 -5.52938)
(20.1987 -6.60417e-20 -5.1872)
(17.3539 0 -4.70984)
(14.6928 6.99769e-20 -4.15643)
(12.271 0 -3.57539)
(10.1111 7.18302e-20 -3.00032)
(8.21304 7.23598e-20 -2.45475)
(6.56294 7.20842e-20 -1.95147)
(5.1405 -7.14008e-20 -1.49703)
(3.92275 -1.40651e-19 -1.09344)
(2.88703 0 -0.739589)
(2.01163 1.35757e-19 -0.433386)
(1.27646 0 -0.171147)
(0.663513 0 0.0508086)
(0.156569 -1.26625e-19 0.236612)
(-0.258673 2.46547e-19 0.39021)
(-0.595015 0 0.515344)
(-0.863763 0 0.61542)
(-1.07492 0 0.693893)
(-1.23725 -2.15645e-19 0.75325)
(-1.35775 2.08589e-19 0.796695)
(-1.44315 -9.32609e-23 0.828367)
(-1.50064 1.94195e-19 0.844741)
(-1.5338 -3.73941e-19 0.849845)
(-1.54758 1.79734e-19 0.847926)
(-1.54494 -1.72839e-19 0.84036)
(-1.52924 6.95555e-23 0.827666)
(-1.5034 0 0.811256)
(-1.4699 3.06686e-19 0.791761)
(-1.43054 2.94162e-19 0.76984)
(-1.38684 -2.82067e-19 0.74597)
(-1.33979 0 0.720507)
(-1.29032 2.59201e-19 0.693829)
(-1.23903 2.48228e-19 0.666053)
(-1.18623 2.3766e-19 0.637424)
(-1.13243 2.27468e-19 0.608318)
(-1.07811 0 0.579177)
(-1.02413 0 0.550695)
(-0.971589 -7.22209e-23 0.523532)
(-0.921584 0 0.498328)
(-0.875351 0 0.47568)
(-0.833827 -3.47613e-19 0.455788)
(-0.797283 3.32037e-19 0.438399)
(-0.765237 3.17131e-19 0.42271)
(-0.735992 4.44377e-23 0.407109)
(-0.706492 -8.55432e-23 0.389202)
(-0.672119 0 0.365747)
(-0.62674 0 0.332841)
(-0.562955 1.00395e-18 0.286294)
(-0.473413 0 0.222602)
(-0.351954 0 0.139896)
(-0.19692 -4.34113e-19 0.0397582)
(-0.0118437 0 -0.0726223)
(0.192051 0 -0.189482)
(0.396968 7.43462e-19 -0.298578)
(0.57852 -7.03832e-19 -0.387785)
(0.722603 1.33068e-18 -0.453893)
(0.823567 0 -0.49821)
(0.895319 -5.92609e-19 -0.533438)
(0.959148 0 -0.571982)
(1.04412 0 -0.631783)
(1.17895 9.87509e-19 -0.725434)
(1.38147 0 -0.859805)
(1.65772 0 -1.02598)
(1.95832 0 -1.18492)
(2.21361 0 -1.2816)
(2.25262 0 -1.21369)
(1.89996 6.92238e-19 -0.937231)
(1.28845 -4.03138e-22 -0.569561)
(0.611947 -6.40217e-19 -0.209672)
(0.07219 6.17041e-19 0.0192222)
(-0.0466261 0 0.00789965)
(0.0222653 0 -0.0760737)
(0.28596 0 -0.281281)
(0.824541 0 -0.6073)
(1.2443 0 -0.797939)
(1.39149 3.78879e-22 -0.801816)
(1.06887 0 -0.479271)
(-0.0401093 -7.67147e-19 0.265663)
(-1.25074 1.37378e-21 0.922396)
(-1.81357 0 1.03532)
(-1.04301 -1.15207e-18 0.327757)
(0.496437 0 -0.909097)
(4.16059 8.55372e-19 -2.71124)
(4.61578 -2.35672e-21 -3.72023)
(13.054 0 -8.44607)
(13.5106 0 -7.32815)
(13.3537 0 -6.9393)
(8.52586 0 -3.49496)
(-0.315784 4.6346e-19 0.90332)
(-0.842862 0 0.405495)
(-0.843808 0 0.412852)
(0.137715 4.88323e-19 -0.443083)
(2.91027 0 -1.84239)
(2.34908 -4.02239e-19 -1.34094)
(2.80562 3.94463e-19 -1.70248)
(2.21393 0 -1.00015)
(-2.17877 1.09503e-18 2.12977)
(-9.78062 -2.39478e-21 6.88425)
(-16.5731 2.38869e-19 10.6315)
(-19.6429 -8.29838e-20 11.8783)
(-19.9633 -2.67121e-19 11.5415)
(-18.3034 5.63362e-19 10.1772)
(-15.2342 9.28513e-19 8.0943)
(-11.3517 1.16458e-18 5.83444)
(-8.09891 -2.73751e-18 4.02244)
(-5.0153 -2.90146e-18 2.23784)
(-1.36368 -2.91886e-18 0.213916)
(1.33614 -2.70369e-18 -0.860425)
(-0.341201 0 0.143898)
(1.67311 0 -1.11657)
(33.2075 0 -2.43635)
(33.2826 1.89529e-20 -2.59093)
(33.4457 0 -2.80849)
(33.5954 0 -3.14462)
(33.5695 0 -3.61507)
(33.2098 0 -4.17584)
(32.4006 2.87718e-20 -4.73999)
(31.0911 -2.72958e-20 -5.2125)
(29.2987 2.93339e-20 -5.52076)
(27.0974 -5.95638e-20 -5.62868)
(24.5996 6.20821e-20 -5.53544)
(21.9343 0 -5.26651)
(19.2273 -6.57817e-20 -4.86184)
(16.5866 0 -4.36641)
(14.0928 -6.75287e-20 -3.82145)
(11.7981 -6.74169e-20 -3.26214)
(9.7285 0 -2.71449)
(7.89123 0 -2.19637)
(6.2804 6.60397e-20 -1.71882)
(4.88278 0 -1.28732)
(3.68108 0 -0.904122)
(2.65631 -1.24454e-19 -0.568504)
(1.78951 0 -0.278423)
(1.0623 0 -0.0307236)
(0.457592 -1.15808e-19 0.178211)
(-0.0404836 0 0.352088)
(-0.446184 0 0.494627)
(-0.772395 0 0.609837)
(-1.03075 4.05313e-19 0.700615)
(-1.23086 0 0.770445)
(-1.38203 -1.04689e-22 0.822275)
(-1.49128 -1.6222e-22 0.860561)
(-1.5672 1.75659e-19 0.882902)
(-1.61453 -1.68916e-19 0.893032)
(-1.63897 3.24784e-19 0.8936)
(-1.6436 1.56169e-19 0.888306)
(-1.63297 0 0.877338)
(-1.61041 0 0.861857)
(-1.57843 2.76154e-19 0.842689)
(-1.53923 -2.64818e-19 0.820455)
(-1.49433 0 0.795669)
(-1.44511 0 0.768871)
(-1.39254 -6.58695e-23 0.740279)
(-1.33722 -2.23199e-19 0.710264)
(-1.27989 -2.13611e-19 0.679342)
(-1.22125 -4.08697e-19 0.648088)
(-1.16233 0 0.617359)
(-1.10445 -7.20166e-23 0.587934)
(-1.04891 0 0.560556)
(-0.997123 0 0.535899)
(-0.95024 3.26263e-19 0.514165)
(-0.908644 -3.11614e-19 0.495029)
(-0.871898 0 0.477539)
(-0.838226 2.84056e-19 0.459832)
(-0.804339 -8.61181e-23 0.439173)
(-0.765231 0 0.411906)
(-0.714232 0 0.373687)
(-0.643287 -9.41501e-19 0.319949)
(-0.544364 0 0.247003)
(-0.410659 0 0.153091)
(-0.240111 8.14057e-19 0.040304)
(-0.0361924 0 -0.0852924)
(0.189394 0 -0.214937)
(0.417878 -1.39382e-18 -0.335219)
(0.622699 6.59653e-19 -0.433123)
(0.787446 -6.23572e-19 -0.505561)
(0.904696 0 -0.554342)
(0.988198 5.55227e-19 -0.593825)
(1.06096 0 -0.637749)
(1.15486 -4.92368e-19 -0.70618)
(1.30229 -4.62532e-19 -0.812693)
(1.52423 0 -0.964981)
(1.83023 0 -1.15257)
(2.17328 7.64066e-19 -1.33448)
(2.48481 7.18323e-19 -1.45113)
(2.59025 0 -1.39332)
(2.2739 0 -1.10825)
(1.64242 -1.24415e-18 -0.715121)
(0.893303 5.99108e-19 -0.316868)
(0.259725 -1.15432e-18 -0.0586792)
(0.0724847 0 -0.0557543)
(0.0994963 0 -0.132435)
(0.354902 0 -0.352174)
(0.914825 0 -0.696067)
(1.34012 0 -0.872889)
(1.44998 4.1532e-22 -0.82897)
(1.02965 0 -0.401116)
(-0.255148 0 0.475076)