/*--------------------------------*- C++ -*----------------------------------*\
| =========                 |                                                 |
| \\      /  F ield         | OpenFOAM: The Open Source CFD Toolbox           |
|  \\    /   O peration     | Version:  2412                                  |
|   \\  /    A nd           | Website:  www.openfoam.com                      |
|    \\/     M anipulation  |                                                 |
\*---------------------------------------------------------------------------*/
FoamFile
{
    version     2.0;
    format      ascii;
    arch        "LSB;label=32;scalar=64";
    class       volScalarField;
    location    "0.565";
    object      p;
}
// * * * * * * * * * * * * * * * * * * * * * * * * * * * * * * * * * * * * * //

dimensions      [0 2 -2 0 0 0 0];

internalField   nonuniform List<scalar> 
12600
(
0.00767657
-154.838
-204.984
-201.824
-189.438
-177.915
-167.81
-158.77
-150.577
-143.072
-136.126
-129.645
-123.555
-117.8
-112.334
-107.119
-102.124
-97.3236
-92.6962
-88.2231
-83.8883
-79.6781
-75.5805
-71.5848
-67.6819
-63.8634
-60.122
-56.4511
-52.8448
-49.2976
-45.8048
-42.3617
-38.9643
-35.6089
-32.292
-29.0103
-25.7609
-22.541
-19.3479
-16.1793
-13.0327
-9.90604
-6.7973
-3.70431
-0.625531
2.44121
5.4971
8.54436
11.5837
14.6177
17.6464
20.6727
23.696
26.7197
29.7425
32.7683
35.7948
38.8271
41.861
44.9035
47.9482
51.004
54.062
57.1337
60.2068
63.2963
66.3854
69.4936
72.5986
75.7254
78.8449
81.989
85.1204
88.2793
91.4183
94.5878
97.7288
100.903
104.039
107.21
110.332
113.491
116.589
119.725
122.79
125.891
128.913
131.965
134.94
137.931
140.856
143.778
146.656
149.506
152.343
155.109
157.881
160.547
163.287
165.926
168.776
171.563
174.675
177.831
181.456
183.469
187.94
196.428
196.854
190.305
195.433
213.885
234.472
245.345
251.245
251.851
250.889
250.855
251.778
256.187
-24.2425
-123.991
-171.49
-181.179
-178.027
-171.341
-163.642
-155.918
-148.53
-141.554
-134.976
-128.761
-122.869
-117.264
-111.913
-106.789
-101.866
-97.1234
-92.5423
-88.1068
-83.8028
-79.6178
-75.5409
-71.5624
-67.6736
-63.8669
-60.1353
-56.4725
-52.8728
-49.3312
-45.8428
-42.4034
-39.009
-35.656
-32.341
-29.0608
-25.8125
-22.5933
-19.4008
-16.2324
-13.086
-9.95924
-6.85032
-3.75704
-0.677869
2.38934
5.44576
8.4936
11.5336
14.5682
17.5977
20.6246
23.6487
26.6732
29.6966
32.7233
35.7505
38.7835
41.8182
44.8614
47.9069
50.9634
54.0222
57.0946
60.1684
63.2586
66.3484
69.4572
72.5629
75.6904
78.8106
81.9553
85.0874
88.2469
91.3866
94.5567
97.6984
100.873
104.01
107.182
110.304
113.464
116.563
119.699
122.765
125.866
128.889
131.941
134.917
137.909
140.834
143.757
146.636
149.486
152.323
155.09
157.862
160.53
163.27
165.909
168.758
171.545
174.656
177.809
181.44
183.455
187.896
196.394
196.878
190.33
195.38
213.762
234.364
245.284
251.22
251.85
250.894
250.854
251.763
256.172
-41.1198
-102.606
-145.443
-162.958
-166.339
-163.763
-158.671
-152.567
-146.178
-139.842
-133.696
-127.785
-122.113
-116.673
-111.448
-106.421
-101.574
-96.8923
-92.3598
-87.9636
-83.6914
-79.5325
-75.477
-71.5161
-67.6419
-63.8473
-60.1257
-56.4711
-52.8784
-49.3424
-45.8588
-42.4232
-39.0321
-35.6816
-32.3686
-29.0901
-25.8431
-22.6249
-19.4331
-16.2652
-13.1191
-9.99257
-6.88368
-3.79032
-0.710972
2.35649
5.41323
8.46146
11.5019
14.537
17.5669
20.5944
23.619
26.644
29.668
32.6952
35.7229
38.7565
41.7918
44.8356
47.8816
50.9387
53.9979
57.0709
60.1452
63.2359
66.3263
69.4356
72.5418
75.6697
78.7904
81.9357
85.0682
88.2281
91.3683
94.5389
97.681
100.856
103.993
107.166
110.288
113.449
116.548
119.685
122.751
125.852
128.876
131.929
134.904
137.897
140.823
143.746
146.625
149.475
152.313
155.08
157.853
160.521
163.261
165.9
168.749
171.536
174.646
177.799
181.432
183.446
187.875
196.377
196.894
190.346
195.347
213.702
234.309
245.252
251.207
251.85
250.896
250.854
251.755
256.163
-49.0917
-88.9162
-124.378
-144.944
-153.206
-154.554
-152.298
-148.13
-143.029
-137.553
-131.994
-126.494
-121.118
-115.895
-110.835
-105.934
-101.186
-96.5818
-92.1118
-87.7659
-83.5348
-79.4094
-75.3816
-71.4436
-67.5884
-63.8096
-60.1012
-56.4577
-52.8742
-49.346
-45.8688
-42.4387
-39.052
-35.7053
-32.3955
-29.1195
-25.8746
-22.6581
-19.4677
-16.3009
-13.1556
-10.0296
-6.92113
-3.82803
-0.748811
2.31864
5.37546
8.42384
11.4645
14.4999
17.5301
20.558
23.583
26.6084
29.6329
32.6606
35.6888
38.7229
41.7587
44.803
47.8495
50.9071
53.9669
57.0404
60.1152
63.2064
66.2973
69.4071
72.5138
75.6423
78.7634
81.9092
85.0422
88.2026
91.3433
94.5144
97.657
100.833
103.97
107.143
110.266
113.427
116.527
119.664
122.731
125.833
128.857
131.91
134.886
137.879
140.805
143.729
146.608
149.459
152.297
155.065
157.838
160.506
163.247
165.886
168.735
171.521
174.63
177.782
181.419
183.433
187.839
196.354
196.917
190.36
195.294
213.6
234.227
245.208
251.19
251.851
250.899
250.853
251.742
256.151
-54.1965
-80.7127
-107.657
-127.363
-138.514
-143.315
-143.994
-142.083
-138.623
-134.31
-129.573
-124.659
-119.709
-114.799
-109.973
-105.251
-100.641
-96.1454
-91.7613
-87.4842
-83.3088
-79.2288
-75.2382
-71.3309
-67.5012
-63.7436
-60.0528
-56.4242
-52.8531
-49.3353
-45.8668
-42.4441
-39.0636
-35.7221
-32.4165
-29.1441
-25.9022
-22.6882
-19.4997
-16.3345
-13.1905
-10.0656
-6.95787
-3.86532
-0.786476
2.28075
5.33748
8.38589
11.4267
14.4622
17.4927
20.5209
23.5463
26.5722
29.5971
32.6252
35.654
38.6886
41.7249
44.7697
47.8168
50.8749
53.9352
57.0093
60.0847
63.1765
66.2679
69.3783
72.4855
75.6145
78.7362
81.8826
85.0161
88.1771
91.3183
94.4899
97.6331
100.809
103.947
107.121
110.245
113.406
116.506
119.644
122.711
125.813
128.838
131.892
134.869
137.862
140.789
143.713
146.593
149.444
152.283
155.051
157.825
160.493
163.234
165.873
168.721
171.508
174.615
177.767
181.407
183.418
187.805
196.334
196.941
190.371
195.238
213.506
234.15
245.167
251.175
251.852
250.902
250.851
251.729
256.139
-57.535
-75.7067
-95.3422
-112.249
-124.12
-131.075
-134.161
-134.439
-132.79
-129.884
-126.204
-122.077
-117.712
-113.242
-108.748
-104.28
-99.8669
-95.5246
-91.2615
-87.0809
-82.9829
-78.9657
-75.0264
-71.1611
-67.3661
-63.6373
-59.9706
-56.362
-52.8077
-49.304
-45.8474
-42.4347
-39.0626
-35.7282
-32.4286
-29.1612
-25.9235
-22.713
-19.5274
-16.3647
-13.2226
-10.0993
-6.99285
-3.9013
-0.823236
2.24343
5.29976
8.34792
11.3886
14.4241
17.4547
20.4831
23.5087
26.5348
29.5601
32.5886
35.6178
38.6529
41.6896
44.7349
47.7825
50.8412
53.902
56.9766
60.0526
63.1449
66.2368
69.3478
72.4555
75.5851
78.7073
81.8542
84.9883
88.1499
91.2916
94.4638
97.6075
100.784
103.923
107.097
110.221
113.383
116.484
119.622
122.69
125.793
128.818
131.872
134.85
137.844
140.771
143.695
146.576
149.427
152.266
155.035
157.809
160.478
163.22
165.859
168.706
171.492
174.599
177.749
181.394
183.401
187.767
196.315
196.969
190.379
195.169
213.396
234.066
245.125
251.16
251.854
250.905
250.848
251.715
256.126
-59.2035
-72.239
-86.5893
-100.31
-111.419
-119.157
-123.74
-125.734
-125.735
-124.273
-121.781
-118.598
-114.972
-111.076
-107.029
-102.908
-98.767
-94.6391
-90.5461
-86.5013
-82.5124
-78.5835
-74.7159
-70.9094
-67.1627
-63.4739
-59.8403
-56.2594
-52.7282
-49.2439
-45.8037
-42.4047
-39.0442
-35.7196
-32.4283
-29.1679
-25.936
-22.7305
-19.5491
-16.3898
-13.2507
-10.1297
-7.02528
-3.93534
-0.85857
2.20707
5.26262
8.3102
11.3505
14.3857
17.4162
20.4445
23.4702
26.4965
29.522
32.5508
35.5803
38.6157
41.6529
44.6987
47.7467
50.8058
53.8672
56.9423
60.0188
63.1116
66.2041
69.3156
72.4239
75.554
78.6768
81.8243
84.9589
88.1211
91.2634
94.4361
97.5804
100.758
103.897
107.071
110.196
113.359
116.46
119.599
122.667
125.771
128.797
131.852
134.829
137.824
140.752
143.676
146.558
149.41
152.249
155.018
157.793
160.463
163.204
165.843
168.691
171.476
174.581
177.731
181.381
183.382
187.725
196.297
197.001
190.381
195.089
213.278
233.98
245.083
251.146
251.858
250.908
250.845
251.7
256.113
-59.7081
-69.4928
-80.2346
-91.1062
-100.78
-108.351
-113.597
-116.694
-117.966
-117.764
-116.422
-114.23
-111.432
-108.213
-104.713
-101.033
-97.2456
-93.4021
-89.5383
-85.6787
-81.8401
-78.0334
-74.2657
-70.5412
-66.862
-63.229
-59.6417
-56.0994
-52.6004
-49.1432
-45.7256
-42.3457
-39.0013
-35.6903
-32.4105
-29.1598
-25.9362
-22.7376
-19.5621
-16.4077
-13.2728
-10.1553
-7.05377
-3.96625
-0.891468
2.17255
5.22679
8.27334
11.3128
14.3475
17.3775
20.4056
23.4311
26.4574
29.4829
32.5119
35.5416
38.5773
41.6148
44.6609
47.7093
50.7689
53.8307
56.9063
59.9833
63.0767
66.1697
69.2818
72.3906
75.5213
78.6447
81.7927
84.9279
88.0907
91.2336
94.4069
97.5518
100.73
103.869
107.045
110.17
113.333
116.435
119.575
122.644
125.748
128.774
131.83
134.808
137.803
140.732
143.657
146.538
149.391
152.231
155.001
157.776
160.446
163.188
165.827
168.673
171.458
174.562
177.712
181.367
183.36
187.68
196.282
197.038
190.377
194.996
213.148
233.889
245.04
251.133
251.862
250.911
250.84
251.683
256.098
-59.4955
-67.078
-75.3318
-83.9102
-92.0231
-98.9274
-104.241
-107.901
-110.019
-110.786
-110.424
-109.153
-107.178
-104.672
-101.778
-98.6059
-95.2408
-91.7466
-88.171
-84.5491
-80.9066
-77.2619
-73.6281
-70.0146
-66.4276
-62.8712
-59.3479
-55.8589
-52.4047
-48.985
-45.599
-42.2456
-38.9237
-35.6316
-32.3679
-29.1307
-25.9186
-22.7298
-19.5626
-16.4152
-13.2862
-10.1737
-7.07635
-3.99236
-0.920532
2.14104
5.19325
8.23816
11.2763
14.3099
17.3391
20.3666
23.3917
26.4177
29.4431
32.472
35.5017
38.5376
41.5753
44.6217
47.6704
50.7304
53.7926
56.8687
59.9461
63.04
66.1335
69.2462
72.3555
75.4868
78.6107
81.7594
84.8952
88.0586
91.2021
94.376
97.5215
100.7
103.84
107.016
110.143
113.306
116.409
119.549
122.619
125.723
128.75
131.807
134.786
137.781
140.71
143.636
146.518
149.371
152.212
154.982
157.758
160.429
163.17
165.809
168.655
171.439
174.541
177.692
181.352
183.336
187.63
196.271
197.079
190.365
194.886
213.005
233.794
244.997
251.121
251.868
250.914
250.835
251.665
256.083
-58.8094
-64.8011
-71.2848
-78.1038
-84.8001
-90.8456
-95.865
-99.6843
-102.279
-103.715
-104.115
-103.624
-102.396
-100.576
-98.2923
-95.6543
-92.7501
-89.6499
-86.4091
-83.0704
-79.6668
-76.2234
-72.7591
-69.2882
-65.8213
-62.3659
-58.9277
-55.5105
-52.1168
-48.7482
-45.4054
-42.0886
-38.7977
-35.5318
-32.2903
-29.0721
-25.8761
-22.7008
-19.5452
-16.4077
-13.287
-10.1816
-7.09028
-4.01135
-0.9438
2.11419
5.1634
8.20582
11.2419
14.2739
17.3017
20.3281
23.3523
26.3777
29.4026
32.4313
35.4609
38.4967
41.5345
44.581
47.63
50.6903
53.7528
56.8293
59.9071
63.0015
66.0955
69.2087
72.3186
75.4504
78.5749
81.7242
84.8606
88.0246
91.1687
94.3434
97.4895
100.669
103.81
106.986
110.113
113.278
116.381
119.522
122.592
125.697
128.725
131.782
134.762
137.758
140.688
143.614
146.497
149.35
152.191
154.962
157.739
160.41
163.152
165.79
168.636
171.419
174.519
177.67
181.336
183.307
187.576
196.263
197.126
190.344
194.763
212.848
233.693
244.953
251.109
251.875
250.917
250.827
251.646
256.067
-57.7793
-62.5778
-67.7611
-73.2462
-78.7528
-83.9266
-88.4664
-92.1765
-94.9621
-96.8068
-97.7526
-97.8796
-97.2872
-96.0841
-94.377
-92.2633
-89.8275
-87.1406
-84.261
-81.236
-78.1035
-74.8936
-71.63
-68.3311
-65.0114
-61.682
-58.3515
-55.0262
-51.711
-48.4094
-45.1238
-41.8559
-38.6065
-35.3762
-32.1651
-28.9727
-25.7988
-22.6424
-19.5028
-16.379
-13.27
-10.1746
-7.0917
-4.01996
-0.958509
2.09433
5.13918
8.17796
11.2109
14.2404
17.2661
20.2908
23.3137
26.338
29.3621
32.3901
35.4192
38.4548
41.4924
44.5389
47.5879
50.6484
53.7112
56.788
59.8662
62.961
66.0554
69.1691
72.2795
75.412
78.5371
81.687
84.824
87.9887
91.1334
94.3088
97.4556
100.636
103.777
106.954
110.082
113.247
116.351
119.493
122.564
125.67
128.698
131.756
134.736
137.733
140.664
143.59
146.474
149.328
152.17
154.942
157.719
160.39
163.132
165.77
168.615
171.397
174.495
177.647
181.319
183.275
187.517
196.26
197.178
190.313
194.612
212.673
233.587
244.908
251.098
251.882
250.919
250.82
251.626
256.05
-56.4845
-60.3688
-64.5722
-69.0376
-73.5761
-77.9526
-81.9487
-85.3926
-88.1677
-90.2118
-91.5121
-92.0957
-92.0162
-91.3435
-90.1563
-88.5346
-86.5531
-84.2784
-81.7685
-79.072
-76.2297
-73.2748
-70.2346
-67.1308
-63.9812
-60.7998
-57.5977
-54.3839
-51.1653
-47.9472
-44.7338
-41.5282
-38.3326
-35.1487
-31.9775
-28.8195
-25.6751
-22.5441
-19.4263
-16.3212
-13.2283
-10.1465
-7.07545
-4.01375
-0.960874
2.08468
5.12333
8.15686
11.1854
14.2111
17.2337
20.2559
23.2766
26.2992
29.3218
32.3488
35.3771
38.412
41.4492
44.4955
47.5443
50.6048
53.6677
56.7447
59.8232
62.9184
66.0132
69.1274
72.2383
75.3713
78.4969
81.6475
84.7851
87.9505
91.096
94.272
97.4195
100.6
103.743
106.921
110.049
113.215
116.32
119.463
122.534
125.641
128.67
131.728
134.71
137.707
140.638
143.565
146.45
149.304
152.147
154.919
157.698
160.369
163.111
165.749
168.592
171.373
174.469
177.623
181.302
183.238
187.453
196.261
197.236
190.271
194.461
212.484
233.473
244.861
251.085
251.891
250.922
250.81
251.606
256.032
-54.9854
-58.1585
-61.6052
-65.2778
-69.0366
-72.7215
-76.1821
-79.2848
-81.9196
-84.007
-85.5029
-86.3972
-86.7077
-86.4701
-85.7344
-84.5588
-83.0039
-81.1277
-78.9838
-76.6196
-74.0763
-71.3887
-68.5864
-65.6938
-62.731
-59.7145
-56.6579
-53.5721
-50.466
-47.3466
-44.2197
-41.0897
-37.9603
-34.834
-31.7131
-28.5989
-25.4925
-22.3945
-19.3054
-16.225
-13.1535
-10.0902
-7.03508
-3.98708
-0.945984
2.08948
5.11947
8.14564
11.1679
14.1883
17.2064
20.2248
23.2423
26.2623
29.2828
32.308
35.3348
38.3687
41.405
44.4508
47.4992
50.5595
53.6222
56.6993
59.7779
62.8734
65.9685
69.0831
72.1945
75.3281
78.4543
81.6055
84.7437
87.9099
91.056
94.2329
97.3811
100.563
103.706
106.885
110.014
113.181
116.287
119.43
122.502
125.61
128.64
131.699
134.681
137.679
140.611
143.539
146.424
149.279
152.123
154.896
157.675
160.346
163.088
165.725
168.568
171.348
174.441
177.596
181.284
183.197
187.381
196.271
197.3
190.217
194.278
212.277
233.352
244.811
251.072
251.899
250.923
250.801
251.586
256.015
-53.3324
-55.9413
-58.79
-61.8357
-64.9658
-68.0664
-71.0355
-73.7763
-76.1975
-78.2206
-79.7886
-80.8695
-81.4552
-81.5559
-81.1958
-80.4109
-79.2449
-77.7441
-75.9543
-73.9186
-71.6764
-69.2624
-66.707
-64.0363
-61.2722
-58.4333
-55.5351
-52.5903
-49.6095
-46.6015
-43.5734
-40.531
-37.479
-34.4212
-31.3606
-28.2995
-25.2399
-22.1829
-19.1297
-16.0809
-13.0368
-9.99754
-6.96324
-3.93335
-0.907967
2.11392
5.13218
8.14826
11.1618
14.1749
17.1866
20.1996
23.2126
26.2287
29.246
32.2686
35.2933
38.3254
41.3603
44.405
47.4526
50.5123
53.5747
56.6516
59.7302
62.8258
65.9211
69.0361
72.1478
75.282
78.4087
81.5606
84.6995
87.8664
91.0132
94.1909
97.34
100.523
103.667
106.846
109.977
113.144
116.251
119.395
122.469
125.577
128.608
131.668
134.651
137.65
140.583
143.511
146.397
149.252
152.097
154.871
157.651
160.323
163.064
165.701
168.542
171.321
174.411
177.57
181.264
183.151
187.305
196.283
197.37
190.152
194.081
212.054
233.223
244.755
251.055
251.907
250.923
250.79
251.567
255.998
-51.5544
-53.7095
-56.0789
-58.6223
-61.2429
-63.8552
-66.3901
-68.7805
-70.956
-72.8481
-74.3989
-75.5667
-76.3278
-76.6745
-76.6115
-76.1553
-75.3322
-74.175
-72.7196
-71.0022
-69.0578
-66.9193
-64.6163
-62.1751
-59.6188
-56.9674
-54.2378
-51.4445
-48.5996
-45.7134
-42.7943
-39.8494
-36.8846
-33.9045
-30.9133
-27.914
-24.9093
-21.9011
-18.8912
-15.8805
-12.8703
-9.86076
-6.85267
-3.84577
-0.84055
2.16373
5.16663
8.16937
11.1714
14.1744
17.1775
20.1831
23.1897
26.2005
29.2132
32.232
35.2534
38.2829
41.3156
44.3586
47.4048
50.4635
53.5251
56.6016
59.6797
62.7753
65.8706
68.9859
72.0979
75.2325
78.3597
81.5123
84.6518
87.8195
90.9672
94.1458
97.2957
100.479
103.624
106.805
109.936
113.105
116.213
119.358
122.432
125.542
128.574
131.635
134.619
137.619
140.553
143.481
146.368
149.224
152.07
154.845
157.625
160.297
163.038
165.674
168.515
171.292
174.38
177.54
181.244
183.1
187.223
196.303
197.443
190.08
193.861
211.813
233.083
244.693
251.032
251.913
250.923
250.78
251.551
255.981
-49.6723
-51.4593
-53.4401
-55.5762
-57.7808
-59.9864
-62.1456
-64.2135
-66.1381
-67.8638
-69.3382
-70.5184
-71.3731
-71.8837
-72.0422
-71.8497
-71.3174
-70.4646
-69.3161
-67.8996
-66.2441
-64.3782
-62.3292
-60.1226
-57.7812
-55.3255
-52.7736
-50.1412
-47.4415
-44.6863
-41.8852
-39.0465
-36.1773
-33.2832
-30.3692
-27.4392
-24.4967
-21.5443
-18.5843
-15.6183
-12.6478
-9.67379
-6.69726
-3.71835
-0.73794
2.24444
5.22801
8.21378
11.2009
14.1909
17.1826
20.1784
23.1764
26.1799
29.1863
32.1997
35.2166
38.2423
41.2718
44.3122
47.3562
50.4133
53.4735
56.5491
59.6265
62.7217
65.8168
68.9321
72.0442
75.1792
78.3068
81.46
84.6002
87.7688
90.9172
94.0968
97.2477
100.432
103.578
106.76
109.893
113.063
116.171
119.318
122.394
125.504
128.538
131.599
134.585
137.585
140.52
143.45
146.338
149.194
152.041
154.817
157.598
160.27
163.011
165.646
168.485
171.26
174.346
177.509
181.222
183.046
187.135
196.327
197.519
190.001
193.642
211.558
232.931
244.62
250.999
251.915
250.921
250.772
251.54
255.968
-47.7034
-49.1891
-50.8516
-52.6539
-54.5162
-56.3826
-58.2203
-59.9999
-61.6845
-63.2304
-64.5936
-65.7341
-66.6196
-67.226
-67.5375
-67.5454
-67.2491
-66.6561
-65.7803
-64.6405
-63.2581
-61.6563
-59.8587
-57.8881
-55.7661
-53.5129
-51.1466
-48.6836
-46.1381
-43.5227
-40.8483
-38.1242
-35.3585
-32.558
-29.7285
-26.8749
-24.0012
-21.1109
-18.2068
-15.2912
-12.3661
-9.43282
-6.49288
-3.54674
-0.595669
2.36055
5.32077
8.28583
11.2545
14.2283
17.2057
20.1889
23.1759
26.1698
29.1678
32.1741
35.1846
38.2052
41.23
44.2668
47.3076
50.3622
53.4202
56.4943
59.5704
62.6648
65.7592
68.8743
71.9863
75.1215
78.2493
81.4031
84.5438
87.7133
90.8625
94.0433
97.1951
100.381
103.528
106.712
109.845
113.016
116.127
119.275
122.351
125.463
128.498
131.561
134.548
137.549
140.486
143.416
146.305
149.163
152.011
154.787
157.569
160.241
162.982
165.615
168.454
171.227
174.31
177.476
181.2
182.987
187.042
196.354
197.597
189.919
193.421
211.292
232.764
244.531
250.953
251.911
250.917
250.766
251.536
255.957
-45.6608
-46.8982
-48.2976
-49.8238
-51.4024
-52.9851
-54.5489
-56.0754
-57.5388
-58.9059
-60.1407
-61.2088
-62.0797
-62.7284
-63.1351
-63.2858
-63.1719
-62.7917
-62.1499
-61.2563
-60.1251
-58.773
-57.2185
-55.481
-53.5795
-51.5328
-49.3582
-47.072
-44.6889
-42.2219
-39.6828
-37.0817
-34.4278
-31.7286
-28.991
-26.2206
-23.4223
-20.6002
-17.7579
-14.8981
-12.0236
-9.13597
-6.2373
-3.3284
-0.410914
2.51509
5.44811
8.38882
11.3356
14.2899
17.2499
20.2177
23.191
26.1729
29.1601
32.1572
35.1596
38.1732
41.1919
44.2235
47.2599
50.3109
53.3658
56.4375
59.5115
62.6045
65.6977
68.8122
71.9236
75.0588
78.1866
81.3409
84.482
87.6523
90.8022
93.9842
97.137
100.324
103.473
106.658
109.792
112.966
116.077
119.227
122.305
125.419
128.455
131.52
134.508
137.511
140.449
143.38
146.271
149.129
151.978
154.755
157.538
160.211
162.951
165.583
168.421
171.191
174.272
177.441
181.175
182.927
186.945
196.38
197.675
189.84
193.209
211.018
232.579
244.421
250.887
251.898
250.911
250.766
251.542
255.953
-43.5549
-44.5863
-45.7667
-47.0627
-48.4044
-49.749
-51.08
-52.3864
-53.6508
-54.8481
-55.9497
-56.927
-57.7532
-58.4046
-58.8606
-59.1048
-59.1242
-58.9107
-58.462
-57.7805
-56.8733
-55.7506
-54.4256
-52.9131
-51.2289
-49.3891
-47.4097
-45.3058
-43.0919
-40.7811
-38.3855
-35.9159
-33.382
-30.7922
-28.1542
-25.4742
-22.7582
-20.0107
-17.2361
-14.4378
-11.6191
-8.782
-5.9292
-3.06184
-0.182033
2.7099
5.61206
8.52492
11.4465
14.3782
17.3178
20.2673
23.2242
26.1915
29.1658
32.1514
35.1435
38.1482
41.1591
44.184
47.2144
50.2605
53.3111
56.3793
59.4503
62.5411
65.6323
68.7455
71.8558
74.9906
78.118
81.2725
84.4138
87.5849
90.7355
93.9186
97.0724
100.261
103.411
106.598
109.734
112.909
116.022
119.174
122.254
125.37
128.408
131.474
134.465
137.469
140.409
143.341
146.234
149.093
151.944
154.722
157.506
160.179
162.919
165.55
168.386
171.154
174.233
177.403
181.15
182.867
186.846
196.403
197.749
189.772
193.019
210.744
232.371
244.283
250.793
251.871
250.903
250.772
251.563
255.956
-41.394
-42.2535
-43.2505
-44.3533
-45.496
-46.6399
-47.7728
-48.8889
-49.9767
-51.0176
-51.989
-52.8676
-53.6309
-54.2576
-54.7283
-55.0261
-55.1362
-55.0472
-54.7517
-54.2465
-53.5328
-52.615
-51.5008
-50.2003
-48.7253
-47.0888
-45.3043
-43.3854
-41.3454
-39.1971
-36.9523
-34.6219
-32.2161
-29.7438
-27.2132
-24.6314
-22.0049
-19.3389
-16.6385
-13.9077
-11.1502
-8.36892
-5.5668
-2.74547
0.0924855
2.94645
5.81408
8.69566
11.5889
14.4949
17.4111
20.3396
23.2774
26.2277
29.1865
32.1585
35.1382
38.1321
41.1332
44.1497
47.1724
50.2122
53.257
56.3206
59.3874
62.4749
65.5632
68.6744
71.7829
74.9167
78.0431
81.1975
84.3385
87.5102
90.6612
93.8455
97.0002
100.191
103.342
106.531
109.669
112.846
115.961
119.115
122.198
125.316
128.356
131.424
134.417
137.423
140.366
143.299
146.194
149.054
151.907
154.686
157.472
160.145
162.885
165.515
168.351
171.117
174.194
177.364
181.123
182.811
186.748
196.416
197.818
189.723
192.864
210.479
232.137
244.107
250.664
251.826
250.892
250.789
251.603
255.969
-39.185
-39.9005
-40.7429
-41.6825
-42.657
-43.631
-44.5951
-45.5472
-46.4799
-47.3794
-48.2281
-49.0071
-49.6979
-50.2823
-50.743
-51.0638
-51.2299
-51.2285
-51.0494
-50.6856
-50.1337
-49.3934
-48.4676
-47.3617
-46.0834
-44.6421
-43.0485
-41.3139
-39.4498
-37.4679
-35.3794
-33.1949
-30.9245
-28.5773
-26.162
-23.6861
-21.1566
-18.5793
-15.96
-13.3031
-10.6131
-7.89317
-5.14701
-2.37657
0.415019
3.22683
6.05606
8.90277
11.7642
14.6414
17.5313
20.4361
23.3522
26.2831
29.2241
32.1801
35.1453
38.1264
41.1157
44.122
47.1355
50.1673
53.2048
56.2623
59.3236
62.4067
65.491
68.5992
71.7049
74.8369
77.9616
81.1153
84.2556
87.4275
90.5785
93.7639
96.9193
100.112
103.264
106.455
109.595
112.775
115.892
119.049
122.134
125.255
128.298
131.369
134.364
137.373
140.318
143.254
146.152
149.013
151.869
154.649
157.437
160.11
162.851
165.479
168.315
171.08
174.157
177.324
181.096
182.764
186.656
196.415
197.878
189.705
192.765
210.232
231.871
243.885
250.488
251.758
250.877
250.82
251.666
255.994
-36.9334
-37.5278
-38.2394
-39.0404
-39.8721
-40.7015
-41.5216
-42.3323
-43.1295
-43.9029
-44.6386
-45.3215
-45.9365
-46.4685
-46.9026
-47.2241
-47.4192
-47.475
-47.3801
-47.1254
-46.7045
-46.1135
-45.3513
-44.4193
-43.3214
-42.0634
-40.6526
-39.0978
-37.4083
-35.594
-33.6651
-31.6312
-29.5022
-27.287
-24.9942
-22.6316
-20.2065
-17.7254
-15.1943
-12.6181
-10.0021
-7.34966
-4.66517
-1.95097
0.789279
3.55435
6.34091
9.14881
11.9748
14.8198
17.6803
20.5585
23.4502
26.359
29.2798
32.2177
35.1663
38.1325
41.1082
44.1025
47.1048
50.127
53.1557
56.2057
59.26
62.3375
65.4164
68.5205
71.6224
74.7517
77.8739
81.0261
84.1649
87.3366
90.487
93.6731
96.8289
100.023
103.176
106.37
109.511
112.694
115.814
118.974
122.062
125.186
128.232
131.307
134.306
137.317
140.266
143.204
146.106
148.969
151.828
154.61
157.4
160.075
162.816
165.445
168.281
171.045
174.123
177.284
181.07
182.733
186.575
196.391
197.926
189.734
192.74
210.017
231.568
243.606
250.256
251.659
250.859
250.867
251.759
256.035
-34.6442
-35.1364
-35.7368
-36.4195
-37.1292
-37.8353
-38.532
-39.221
-39.9001
-40.5618
-41.1951
-41.7879
-42.328
-42.803
-43.2003
-43.5071
-43.711
-43.7999
-43.7624
-43.5885
-43.2701
-42.8009
-42.177
-41.3965
-40.46
-39.3698
-38.1303
-36.7472
-35.2276
-33.5791
-31.8102
-29.9297
-27.9462
-25.8682
-23.704
-21.4615
-19.1479
-16.77
-14.3343
-11.8459
-9.31051
-6.73209
-4.11542
-1.46324
1.22026
3.93354
6.67272
9.43747
12.224
15.0331
17.8607
20.709
23.5734
26.4574
29.3555
32.2729
35.2026
38.1519
41.112
44.0924
47.0819
50.0928
53.111
56.152
59.1979
62.2683
65.3407
68.4395
71.5363
74.6619
77.7804
80.9303
84.0668
87.2374
90.3866
93.573
96.7285
99.924
103.078
106.274
109.417
112.603
115.725
118.889
121.98
125.108
128.158
131.237
134.24
137.255
140.209
143.151
146.056
148.923
151.785
154.57
157.364
160.04
162.784
165.414
168.251
171.016
174.097
177.248
181.048
182.72
186.511
196.337
197.965
189.823
192.817
209.848
231.224
243.262
249.956
251.525
250.836
250.934
251.884
256.095
-32.3213
-32.727
-33.2326
-33.8139
-34.419
-35.0195
-35.6103
-36.1943
-36.7707
-37.3341
-37.8757
-38.3857
-38.8542
-39.2712
-39.6262
-39.9084
-40.1068
-40.2105
-40.2089
-40.092
-39.851
-39.4783
-38.9682
-38.3163
-37.5207
-36.5808
-35.498
-34.2755
-32.9176
-31.4299
-29.8188
-28.0915
-26.2554
-24.3181
-22.2873
-20.1704
-17.9746
-15.7066
-13.373
-10.9793
-8.53135
-6.03353
-3.49108
-0.907002
1.71394
4.36998
7.05666
9.77349
12.516
15.2851
18.076
20.891
23.7247
26.581
29.4535
32.3478
35.2562
38.1864
41.1287
44.0933
47.0681
50.0661
53.0721
56.1027
59.1386
62.2007
65.265
68.3572
71.4478
74.5685
77.6823
80.8288
83.9619
87.1307
90.2779
93.4638
96.6185
99.8148
102.969
106.167
109.311
112.501
115.625
118.794
121.887
125.021
128.074
131.159
134.166
137.187
140.145
143.092
146.003
148.874
151.741
154.53
157.328
160.009
162.756
165.39
168.228
170.996
174.083
177.218
181.034
182.75
186.475
196.246
197.992
190.047
193.028
209.741
230.836
242.846
249.582
251.347
250.805
251.02
252.045
256.173
-29.9684
-30.3008
-30.7251
-31.2192
-31.7343
-32.2439
-32.7437
-33.2369
-33.7242
-34.2013
-34.6612
-35.0961
-35.4979
-35.8583
-36.1689
-36.4205
-36.6038
-36.7092
-36.727
-36.648
-36.4632
-36.1647
-35.7456
-35.2003
-34.5247
-33.7162
-32.7739
-31.6982
-30.4913
-29.1563
-27.6978
-26.1209
-24.4317
-22.6363
-20.7418
-18.7546
-16.6817
-14.5292
-12.304
-10.0114
-7.65752
-5.24686
-2.7851
-0.275411
2.27691
4.86996
7.49866
10.1624
12.8562
15.5807
18.3307
21.1084
23.9079
26.733
29.5768
32.4452
35.3296
38.2383
41.1605
44.1073
47.0653
50.0486
53.0407
56.0591
59.0836
62.1359
65.1908
68.2752
71.3583
74.4728
77.5808
80.7229
83.8516
87.0175
90.1617
93.3464
96.4994
99.6961
102.85
106.05
109.195
112.388
115.514
118.687
121.783
124.923
127.981
131.071
134.084
137.111
140.075
143.029
145.947
148.823
151.696
154.491
157.296
159.983
162.735
165.376
168.218
170.992
174.089
177.203
181.031
182.821
186.476
196.11
198.017
190.369
193.406
209.713
230.404
242.354
249.128
251.123
250.768
251.127
252.242
256.273
-27.5886
-27.8587
-28.2134
-28.6321
-29.0695
-29.5006
-29.9218
-30.3367
-30.7464
-31.148
-31.5356
-31.903
-32.2434
-32.5503
-32.8167
-33.0349
-33.1971
-33.295
-33.32
-33.2638
-33.118
-32.8747
-32.5267
-32.0676
-31.4921
-30.796
-29.9767
-29.0326
-27.9637
-26.771
-25.4571
-24.0251
-22.4796
-20.8252
-19.0677
-17.2124
-15.2658
-13.2335
-11.1219
-8.93607
-6.68241
-4.3652
-1.99048
0.438552
2.9161
5.44019
8.00517
10.6104
13.2502
15.9254
18.6298
21.366
24.1271
26.9175
29.7291
32.5685
35.4259
38.3103
41.21
44.1366
47.0757
50.0422
53.0185
56.0232
59.0346
62.0755
65.1197
68.1948
71.2691
74.3763
77.4773
80.6139
83.7372
86.8993
90.0396
93.2222
96.3727
99.569
102.722
105.923
109.068
112.264
115.392
118.57
121.669
124.814
127.877
130.974
133.992
137.028
139.999
142.961
145.886
148.771
151.652
154.455
157.268
159.965
162.725
165.378
168.226
171.008
174.12
177.2
181.047
182.95
186.528
195.927
198.038
190.859
193.983
209.779
229.933
241.789
248.597
250.85
250.723
251.249
252.473
256.392
-25.1847
-25.4018
-25.6965
-26.0501
-26.4201
-26.7833
-27.1366
-27.4835
-27.8258
-28.1613
-28.4852
-28.7922
-29.0771
-29.3342
-29.5579
-29.742
-29.8797
-29.9641
-29.9878
-29.9432
-29.8227
-29.619
-29.325
-28.934
-28.4402
-27.8385
-27.1248
-26.2962
-25.351
-24.2883
-23.1088
-21.814
-20.4066
-18.8896
-17.2675
-15.5445
-13.7259
-11.8167
-9.82261
-7.74841
-5.60029
-3.38225
-1.10055
1.24174
3.63841
6.08755
8.58292
11.124
13.7044
16.325
18.979
21.6691
24.3875
27.1391
29.9148
32.7216
35.5487
38.4059
41.2801
44.1839
47.1017
50.0494
53.0078
55.9968
58.9933
62.0214
65.0532
68.1178
71.182
74.2806
77.3735
80.5033
83.6203
86.7775
89.9131
93.0925
96.2399
99.4349
102.586
105.788
108.933
112.131
115.26
118.442
121.545
124.696
127.763
130.868
133.893
136.937
139.917
142.888
145.823
148.718
151.609
154.423
157.247
159.958
162.73
165.399
168.257
171.051
174.186
177.246
181.092
183.14
186.642
195.704
198.081
191.532
194.781
209.949
229.432
241.158
247.995
250.529
250.667
251.384
252.731
256.531
-22.7593
-22.9313
-23.1744
-23.4713
-23.7827
-24.087
-24.3814
-24.6694
-24.9531
-25.2307
-25.4985
-25.752
-25.9867
-26.1982
-26.3819
-26.5324
-26.6443
-26.7115
-26.7279
-26.6867
-26.5813
-26.4048
-26.1507
-25.8124
-25.384
-24.8599
-24.2353
-23.5063
-22.6698
-21.7237
-20.6669
-19.4995
-18.2223
-16.837
-15.3466
-13.7538
-12.0631
-10.278
-8.40402
-6.4449
-4.40659
-2.29265
-0.109338
2.14055
4.45049
6.8188
9.23871
11.7099
14.2252
16.786
19.3843
22.0234
24.6945
27.4029
30.1384
32.9088
35.7021
38.5287
41.3744
44.2527
47.1464
50.0727
53.011
55.9823
58.9619
61.9754
64.9932
68.0458
71.0984
74.1872
77.2708
80.3927
83.5023
86.6535
89.7835
92.9589
96.1024
99.2954
102.444
105.646
108.79
111.99
115.121
118.307
121.412
124.569
127.641
130.754
133.786
136.84
139.829
142.811
145.758
148.665
151.567
154.396
157.235
159.965
162.752
165.444
168.317
171.123
174.285
177.295
181.168
183.411
186.829
195.449
198.13
192.391
195.799
210.228
228.915
240.472
247.336
250.164
250.599
251.524
253.01
256.688
-20.3149
-20.4483
-20.6468
-20.8944
-21.1548
-21.4079
-21.6511
-21.8879
-22.1204
-22.3475
-22.566
-22.772
-22.9619
-23.1321
-23.2786
-23.3971
-23.483
-23.5313
-23.5365
-23.4931
-23.3949
-23.2362
-23.0106
-22.7123
-22.3352
-21.8739
-21.3233
-20.6786
-19.9362
-19.0927
-18.1461
-17.0948
-15.9384
-14.6771
-13.3125
-11.846
-10.2807
-8.61922
-6.86596
-5.02385
-3.09835
-1.09231
0.988096
3.14058
5.35845
7.64037
9.97912
12.3747
14.8194
17.3147
19.852
22.435
25.0539
27.7145
30.4054
33.1353
35.8908
38.6832
41.4968
44.3464
47.2132
50.1154
53.031
55.9823
58.9429
61.9398
64.9417
67.9807
71.0203
74.0977
77.1707
80.2834
83.3848
86.5289
89.6525
92.8228
95.9618
99.1517
102.298
105.499
108.642
111.843
114.975
118.164
121.273
124.435
127.513
130.633
133.673
136.736
139.736
142.73
145.691
148.612
151.529
154.374
157.231
159.985
162.792
165.512
168.405
171.232
174.43
177.423
181.278
183.746
187.092
195.188
198.212
193.408
197.004
210.609
228.397
239.75
246.635
249.762
250.518
251.663
253.301
256.86
-17.8535
-17.9541
-18.114
-18.3186
-18.5344
-18.7429
-18.9415
-19.1338
-19.3218
-19.5046
-19.6797
-19.8439
-19.9939
-20.1268
-20.2393
-20.3278
-20.3886
-20.4172
-20.4092
-20.3596
-20.2633
-20.1149
-19.9091
-19.6403
-19.303
-18.8917
-18.4014
-17.8273
-17.1649
-16.4105
-15.5611
-14.614
-13.5678
-12.4214
-11.175
-9.82873