/*--------------------------------*- C++ -*----------------------------------*\
| =========                 |                                                 |
| \\      /  F ield         | OpenFOAM: The Open Source CFD Toolbox           |
|  \\    /   O peration     | Version:  2412                                  |
|   \\  /    A nd           | Website:  www.openfoam.com                      |
|    \\/     M anipulation  |                                                 |
\*---------------------------------------------------------------------------*/
FoamFile
{
    version     2.0;
    format      ascii;
    arch        "LSB;label=32;scalar=64";
    class       surfaceScalarField;
    location    "0.565";
    object      phi;
}
// * * * * * * * * * * * * * * * * * * * * * * * * * * * * * * * * * * * * * //

dimensions      [0 3 -1 0 0 0 0];

oriented        oriented;

internalField   nonuniform List<scalar> 
24930
(
0.0179702
0.0127555
-0.0307259
0.0106063
0.00736385
0.00695563
0.00365069
0.0051794
0.00177623
0.0042072
0.000972206
0.00358418
0.000623021
0.00313817
0.000446009
0.00279858
0.000339594
0.00252932
0.000269251
0.00230935
0.000219975
0.00212549
0.000183856
0.00196903
0.000156468
0.00183389
0.000135133
0.00171575
0.000118144
0.00161138
0.000104367
0.00151836
9.30183e-05
0.00143482
8.35428e-05
0.00135928
7.55379e-05
0.00129058
6.87049e-05
0.00122776
6.28188e-05
0.00117005
5.77067e-05
0.00111682
5.32344e-05
0.00106752
4.92958e-05
0.00102172
4.58067e-05
0.000979017
4.26989e-05
0.000939099
3.99172e-05
0.000901683
3.74161e-05
0.000866525
3.51582e-05
0.000833413
3.3112e-05
0.000802162
3.12511e-05
0.000772608
2.95536e-05
0.000744608
2.80004e-05
0.000718033
2.65756e-05
0.000692768
2.5265e-05
0.00066871
2.40574e-05
0.000645769
2.29415e-05
0.00062386
2.19096e-05
0.000602907
2.09524e-05
0.000582843
2.00647e-05
0.000563604
1.92384e-05
0.000545134
1.84707e-05
0.00052738
1.77537e-05
0.000510293
1.70873e-05
0.00049383
1.64625e-05
0.000477947
1.58827e-05
0.000462611
1.53367e-05
0.000447778
1.48321e-05
0.000433424
1.4354e-05
0.000419509
1.39154e-05
0.000406012
1.34963e-05
0.000392896
1.31167e-05
0.000380146
1.27492e-05
0.000367723
1.24231e-05
0.000355622
1.21009e-05
0.000343798
1.18241e-05
0.000332256
1.15418e-05
0.000320945
1.13109e-05
0.000309881
1.10636e-05
0.000299005
1.08764e-05
0.000288345
1.06596e-05
0.000277831
1.05147e-05
0.000267507
1.03242e-05
0.000257286
1.02207e-05
0.000247234
1.0052e-05
0.000237244
9.98937e-06
0.000227407
9.83743e-06
0.000217591
9.81603e-06
0.000207915
9.67541e-06
0.000198219
9.69574e-06
0.000188659
9.56052e-06
0.000179036
9.62286e-06
0.000169549
9.48607e-06
0.000159958
9.59072e-06
0.000150514
9.44423e-06
0.000140923
9.59086e-06
0.000131497
9.42563e-06
0.000121884
9.61213e-06
0.000112465
9.41875e-06
0.000102821
9.6426e-06
9.34084e-05
9.41212e-06
8.37397e-05
9.66783e-06
7.4343e-05
9.3959e-06
6.4668e-05
9.6741e-06
5.53046e-05
9.36261e-06
4.56565e-05
9.64754e-06
3.63463e-05
9.31017e-06
2.67724e-05
9.57355e-06
1.75267e-05
9.24521e-06
8.0837e-06
9.44297e-06
-1.11633e-06
9.20013e-06
-1.04114e-05
9.29419e-06
-1.96064e-05
9.19488e-06
-2.86958e-05
9.09019e-06
-3.78601e-05
9.16485e-06
-4.6635e-05
8.7748e-06
-5.60638e-05
9.42911e-06
-6.5346e-05
9.28182e-06
-7.63246e-05
1.09777e-05
-8.71937e-05
1.08712e-05
-0.0001009
1.37123e-05
-0.000113162
1.22648e-05
-0.000129328
1.61599e-05
-0.000141385
1.20443e-05
-0.000151406
1.00142e-05
-0.000167541
1.6143e-05
-0.000223997
5.6471e-05
-0.000202844
-2.09702e-05
-9.02466e-05
-0.000112612
-0.00016677
7.65031e-05
-0.000501476
0.000334729
-0.000714978
0.00021354
-0.000572404
-0.000142548
-0.000221006
-0.000351407
7.30708e-05
-0.000294093
0.00024668
-0.000173623
0.000303942
-5.7266e-05
0.000282616
2.13252e-05
0.000251582
3.10388e-05
0.000295641
-4.40528e-05
-0.000144854
0.0336815
0.0163172
-0.0372431
0.0277474
0.0132979
0.0221965
0.00920158
0.0179233
0.00604941
0.0148777
0.00401782
0.0127175
0.00278323
0.0111306
0.00203296
0.00991359
0.00155657
0.0089464
0.00123644
0.00815606
0.00101031
0.00749584
0.000844074
0.00693444
0.000717868
0.00645009
0.000619492
0.00602709
0.000541135
0.00565388
0.000477586
0.00532165
0.000425242
0.00502365
0.00038155
0.00475453
0.00034465
0.00451007
0.000313167
0.00428683
0.000286059
0.00408201
0.000262529
0.00389329
0.000241954
0.00371874
0.000223845
0.00355673
0.000207812
0.00340589
0.00019354
0.00326504
0.000180772
0.00313315
0.0001693
0.00300936
0.000158947
0.0028929
0.000149571
0.00278311
0.000141049
0.00267938
0.000133279
0.00258121
0.000126172
0.00248813
0.000119657
0.00239973
0.000113667
0.00231564
0.000108148
0.00223553
0.000103053
0.00215909
9.83409e-05
0.00208607
9.39732e-05
0.00201622
8.99221e-05
0.0019493
8.61543e-05
0.00188512
8.26522e-05
0.00182349
7.9385e-05
0.00176423
7.63448e-05
0.00170719
7.35003e-05
0.00165222
7.0854e-05
0.00159919
6.83704e-05
0.00154796
6.60644e-05
0.00149842
6.38924e-05
0.00145045
6.18842e-05
0.00140396
5.99834e-05
0.00135884
5.82393e-05
0.00131501
5.65766e-05
0.00127236
5.50702e-05
0.00123084
5.36182e-05
0.00119034
5.23283e-05
0.00115082
5.10634e-05
0.00111216
4.9973e-05
0.00107434
4.88747e-05
0.00103725
4.79713e-05
0.00100089
4.70217e-05
0.000965106
4.62961e-05
0.000929951
4.54787e-05
0.000895248
4.49233e-05
0.000861079
4.42212e-05
0.000827238
4.38305e-05
0.00079385
4.32254e-05
0.00076067
4.29957e-05
0.000727876
4.24686e-05
0.000695174
4.23975e-05
0.000662808
4.1927e-05
0.000630419
4.20107e-05
0.000598333
4.15722e-05
0.000566118
4.18055e-05
0.000534192
4.137e-05
0.000502038
4.17446e-05
0.000470184
4.12787e-05
0.000438014
4.17813e-05
0.000406183
4.12489e-05
0.000373963
4.18619e-05
0.000342145
4.12288e-05
0.000309886
4.19262e-05
0.000278111
4.11695e-05
0.000245869
4.19149e-05
0.000214197
4.1033e-05
0.000182073
4.17701e-05
0.000150586
4.07959e-05
0.000118721
4.14371e-05
8.74898e-05
4.04759e-05
5.60426e-05
4.08894e-05
2.50744e-05
4.01676e-05
-5.80912e-06
4.01773e-05
-3.67082e-05
4.00933e-05
-6.7068e-05
3.94489e-05
-9.75793e-05
3.96752e-05
-0.000127065
3.826e-05
-0.000158337
4.07006e-05
-0.00018957
4.05148e-05
-0.000225449
4.68573e-05
-0.000261569
4.69904e-05
-0.000305342
5.74838e-05
-0.000345373
5.22958e-05
-0.000396079
6.68693e-05
-0.00043415
5.01195e-05
-0.000465514
4.13772e-05
-0.000525174
7.57984e-05
-0.000688672
0.00021996
-0.000599014
-0.000110798
-0.000292822
-0.000418799
-0.000586116
0.000369799
-0.00158935
0.00133795
-0.00214813
0.000772305
-0.00164431
-0.000646366
-0.000569835
-0.00142587
0.000329213
-0.00119313
0.000841153
-0.000685557
0.00100605
-0.000222166
0.000945553
8.18217e-05
0.00086522
0.000111368
0.00104012
-0.000218961
-0.00060096
0.0414507
0.0160105
-0.0411441
0.0391635
0.0155851
0.0352363
0.0131288
0.0309523
0.0103334
0.0270394
0.00793067
0.023752
0.00607071
0.0210787
0.00470622
0.0189108
0.00372445
0.0171338
0.00301349
0.015655
0.00248906
0.0144057
0.00209344
0.0133354
0.00178814
0.0124073
0.00154756
0.011594
0.00135446
0.0108746
0.00119696
0.0102332
0.00106668
0.00965715
0.000957583
0.00913658
0.000865218
0.00866349
0.000786259
0.00823138
0.000718172
0.0078349
0.000659002
0.00746964
0.000607218
0.00713188
0.000561609
0.00681848
0.000521206
0.0065268
0.000485227
0.00625454
0.000453032
0.00599974
0.000424096
0.0057607
0.000397983
0.00553595
0.00037433
0.00532416
0.000352831
0.00512421
0.000333229
0.00493508
0.000315303
0.00475587
0.000298867
0.00458578
0.000283759
0.00442409
0.000269842
0.00427015
0.000256993
0.00412338
0.000245111
0.00398325
0.000234099
0.00384929
0.000223884
0.00372106
0.000214387
0.00359815
0.000205557
0.00348022
0.000197323
0.0033669
0.000189657
0.00325791
0.00018249
0.00315295
0.000175815
0.00305176
0.000169559
0.00295409
0.000163738
0.00285971
0.000158269
0.0027684
0.000153194
0.00267997
0.000148411
0.00259422
0.000143995
0.00251098
0.000139814
0.00243006
0.000135989
0.00235134
0.000132343
0.00227461
0.000129053
0.00219979
0.000125883
0.00212668
0.000123084
0.00205521
0.000120341
0.00198519
0.000117997
0.00191657
0.000115639
0.00184914
0.000113725
0.00178291
0.000111714
0.00171762
0.000110206
0.00165334
0.000108502
0.00158979
0.000107382
0.00152707
0.000105946
0.00146486
0.000105201
0.00140334
0.000103991
0.00134213
0.000103607
0.00128148
0.000102577
0.00122095
0.00010254
0.00116089
0.000101636
0.00110077
0.000101927
0.00104105
0.000101085
0.000981118
0.000101675
0.000921574
0.000100823
0.00086168
0.000101675
0.0008022
0.000100728
0.000742269
0.000101792
0.000682826
0.000100671
0.000622868
0.000101883
0.000563509
0.000100527
0.000503619
0.000101803
0.000444457
0.000100193
0.000384812
0.000101413
0.000326013
9.95935e-05
0.000266862
0.000100588
0.000208588
9.87488e-05
0.000150199
9.92782e-05
9.25056e-05
9.78604e-05
3.50389e-05
9.76435e-05
-2.2181e-05
9.73125e-05
-7.8478e-05
9.57448e-05
-0.000134992
9.6188e-05
-0.000189782
9.30498e-05
-0.000247602
9.85205e-05
-0.000305511
9.84234e-05
-0.000371116
0.000112462
-0.000437262
0.000113137
-0.000515866
0.000136088
-0.000587983
0.000124415
-0.000677675
0.000156563
-0.000744472
0.000116917
-0.000801612
9.85129e-05
-0.000914006
0.000188184
-0.00118281
0.000488763
-0.00100437
-0.000289239
-0.000526471
-0.000896704
-0.00110221
0.000945543
-0.00279562
0.00303137
-0.00362569
0.00160238
-0.0026643
-0.00160777
-0.000808501
-0.00328166
0.000733305
-0.00273493
0.00158994
-0.00154219
0.00186045
-0.000492682
0.00176427
0.000178004
0.00165101
0.000224623
0.00200119
-0.000569136
-0.0014191
0.0459129
0.0147096
-0.044612
0.0459979
0.0155001
0.0444215
0.0147052
0.0417005
0.0130544
0.0384596
0.0111716
0.0351572
0.00937305
0.0320609
0.00780254
0.029285
0.00650034
0.0268485
0.00545003
0.0247253
0.00461224
0.0228744
0.00394433
0.021254
0.00340859
0.0198268
0.00297475
0.0185617
0.00261955
0.0174331
0.00232554
0.0164202
0.00207957
0.015506
0.00187177
0.0146767
0.00169461
0.0139206
0.00154231
0.0132284
0.00141038
0.0125921
0.0012953
0.0120051
0.00119427
0.0114616
0.00110507
0.0109569
0.00102588
0.0104869
0.000955237
0.010048
0.000891928
0.00963715
0.000834957
0.00925164
0.00078349
0.00888914
0.000736829
0.00854759
0.000694386
0.00822516
0.000655663
0.00792023
0.000620232
0.00763136
0.000587731
0.00735728
0.000557844
0.00709682
0.000530303
0.00684894
0.000504869
0.00661271
0.000481342
0.00638728
0.000459535
0.00617186
0.0004393
0.00596576
0.000420485
0.00576833
0.000402986
0.00557899
0.00038667
0.00539717
0.00037147
0.0052224
0.000357265
0.00505419
0.000344023
0.00489213
0.000331622
0.0047358
0.000320068
0.00458484
0.000309224
0.0044389
0.00029914
0.00429765
0.000289654
0.00416078
0.000280868
0.00402801
0.000272577
0.00389905
0.000264951
0.00377367
0.000257721
0.00365158
0.000251143
0.00353261
0.000244861
0.00341645
0.000239239
0.00330298
0.00023381
0.00319191
0.000229072
0.00308313
0.000224415
0.00297635
0.000220506
0.00287152
0.000216548
0.0027683
0.000213419
0.00266672
0.000210087
0.0025664
0.000207697
0.00246743
0.00020492
0.00236939
0.000203236
0.00227244
0.000200938
0.00217612
0.00019993
0.00208067
0.000198028
0.00198555
0.00019766
0.00189113
0.000196058
0.00179677
0.000196286
0.00170298
0.00019487
0.00160903
0.000195632
0.00151558
0.000194267
0.00142177
0.000195484
0.00132848
0.000194019
0.00123468
0.000195589
0.00114148
0.000193871
0.00104769
0.000195666
0.000954645
0.000193576
0.00086101
0.000195436
0.000768284
0.000192917
0.000675069
0.000194627
0.000582935
0.000191725
0.000490524
0.000192998
0.000399265
0.000190007
0.000308081
0.000190462
0.000217835
0.000188105
0.00012814
0.000187338
3.88597e-05
0.000186592
-4.88719e-05
0.000183475
-0.000136908
0.000184224
-0.00022239
0.000178531
-0.000312283
0.000188413
-0.000402231
0.000188371
-0.000503135
0.000213366
-0.000604458
0.000214461
-0.000723306
0.000254938
-0.000831902
0.000233011
-0.000965501
0.000290164
-0.00106362
0.000215039
-0.00115223
0.000187115
-0.00132374
0.000359698
-0.00169447
0.000859486
-0.00141133
-0.000572379
-0.00078951
-0.00151852
-0.00170772
0.00186376
-0.00409403
0.00541767
-0.00510253
0.00261088
-0.00358291
-0.00312738
-0.000893473
-0.00597109
0.001321
-0.0049494
0.00252723
-0.00274842
0.00290199
-0.000867436
0.00277759
0.000302405
0.00265388
0.000348326
0.00322447
-0.00113973
-0.00265733
0.0493796
0.0135146
-0.0481846
0.0503445
0.0145352
0.0503645
0.0146852
0.0493448
0.0140741
0.0475029
0.0130135
0.0451311
0.0117448
0.042501
0.0104327
0.0398188
0.00918251
0.0372193
0.00804953
0.0347769
0.00705461
0.0325239
0.00619736
0.0304662
0.00546633
0.0285954
0.00484553
0.0268966
0.00431835
0.0253527
0.00386941
0.0239469
0.00348541
0.0226634
0.00315523
0.0214883
0.00286973
0.0204091
0.00262146
0.0194152
0.00240435
0.018497
0.00221349
0.0176464
0.00204484
0.0168564
0.0018951
0.0161207
0.00176155
0.015434
0.00164193
0.0147916
0.00153437
0.0141892
0.00143729
0.0136234
0.00134936
0.0130907
0.00126948
0.0125884
0.00119667
0.012114
0.00113013
0.011665
0.00106917
0.0112396
0.00101317
0.0108358
0.000961618
0.0104521
0.000914065
0.0100868
0.000870111
0.00973875
0.000829419
0.0094066
0.000791676
0.00908927
0.00075663
0.00878573
0.000724027
0.00849504
0.000693683
0.00821632
0.000665382
0.0079488
0.000638998
0.00769172
0.000614338
0.00744442
0.00059133
0.00720625
0.000569785
0.00697663
0.000549688
0.00675502
0.000530836
0.00654088
0.000513276
0.00633376
0.000496775
0.00613318
0.000481453
0.00593873
0.000467022
0.00574998
0.000453699
0.0055666
0.000441108
0.00538815
0.000429587
0.00521437
0.000418644
0.00504485
0.000408763
0.00487935
0.000399304
0.00471748
0.000390939
0.00455907
0.000382828
0.0044037
0.000375876
0.00425126
0.000368989
0.00410132
0.000363363
0.00395382
0.000357582
0.00380831
0.000353206
0.00366482
0.000348411
0.00352283
0.000345222
0.00338248
0.000341293
0.00324317
0.000339235
0.00310516
0.000336037
0.00296778
0.000335041
0.00283142
0.000332419
0.0026953
0.000332403
0.00256
0.000330174
0.0024246
0.000331028
0.0022899
0.00032897
0.00215483
0.000330552
0.00202043
0.000328418
0.00188547
0.000330547
0.00175126
0.000328084
0.00161638
0.000330537
0.00148242
0.000327534
0.00134781
0.000330043
0.00121435
0.000326382
0.00108038
0.000328589
0.000947801
0.000324306
0.000815038
0.00032576
0.000683776
0.000321268
0.000552839
0.000321398
0.000423165
0.000317778
0.000294485
0.000316017
0.000166421
0.000314656
4.07911e-05
0.000309105
-8.52193e-05
0.000310233
-0.00020769
0.000301001
-0.000336089
0.000316812
-0.000464189
0.000316471
-0.000606712
0.000355889
-0.000748881
0.000356631
-0.000913868
0.000419926
-0.00106353
0.000382677
-0.00124617
0.000472804
-0.00137821
0.000347071
-0.00150454
0.000313444
-0.0017399
0.000595055
-0.00220668
0.00132626
-0.00180716
-0.000971905
-0.00107586
-0.00224982
-0.0023869
0.00317481
-0.00544367
0.00847444
-0.00651615
0.00368336
-0.00433631
-0.00530722
-0.000774473
-0.00953292
0.00213698
-0.00786084
0.00369426
-0.00430569
0.0041732
-0.00134638
0.0040338
0.000441804
0.00392753
0.000454586
0.00476565
-0.00197784
-0.00437497
0.052839
0.0126161
-0.0519405
0.0538681
0.0135061
0.0545529
0.0140003
0.0546235
0.0140036
0.0540271
0.0136099
0.0528328
0.0129391
0.0511699
0.0120956
0.0491846
0.0111678
0.0470113
0.0102228
0.0447606
0.00930531
0.0425146
0.00844335
0.0403294
0.00765157
0.0382395
0.00693546
0.0362634
0.00629446
0.0344085
0.00572431
0.032675
0.00521889
0.0310589
0.00477136
0.0295537
0.00437492
0.0281519
0.00402321
0.0268458
0.0037105
0.0256275
0.00343171
0.0244899
0.00318245
0.0234261
0.00295892
0.0224298
0.00275784
0.0214953
0.00257641
0.0206175
0.00241222
0.0197915
0.00226322
0.0190133
0.00212763
0.0182788
0.00200391
0.0175848
0.00189074
0.0169279
0.00178698
0.0163055
0.00169163
0.0157148
0.00160383
0.0151536
0.00152282
0.0146197
0.00144794
0.0141113
0.0013786
0.0136264
0.00131431
0.0131635
0.00125459
0.012721
0.00119906
0.0122977
0.00114734
0.0118923
0.00109914
0.0115035
0.00105416
0.0111303
0.00101217
0.0107717
0.000972901
0.0104269
0.000936223
0.0100948
0.000901862
0.0097747
0.000869772
0.00946587
0.000839664
0.00916756
0.00081158
0.00887914
0.000785193
0.00859995
0.000760646
0.00832943
0.000737543
0.00806697
0.000716154
0.00781211
0.000695976
0.00756426
0.000677435
0.00732302
0.000659878
0.00708786
0.00064393
0.00685842
0.000628741
0.00663418
0.000615184
0.00641485
0.000602149
0.00619991
0.000590818
0.00598915
0.000579747
0.00578202
0.000570499
0.00557839
0.000561208
0.00537768
0.00055392
0.00517986
0.000546229
0.00498428
0.000540797
0.00479106
0.000534523
0.00459944
0.00053085
0.00440969
0.000525791
0.00422096
0.000523766
0.00403369
0.000519689
0.00384692
0.000519175
0.00366129
0.000515804
0.00347569
0.000516624
0.00329103
0.000513625
0.00310604
0.000515548
0.00292191
0.000512543
0.00273718
0.000515279
0.00255339
0.000511875
0.00236885
0.000515069
0.00218545
0.00051093
0.00200134
0.000514157
0.00181865
0.000509071
0.00163546
0.000511775
0.00145401
0.000505748
0.00127252
0.00050725
0.00109296
0.00050083
0.000914055
0.000500301
0.000736827
0.000495005
0.000561195
0.000491648
0.000386482
0.000489368
0.000215238
0.000480348
4.37526e-05
0.000481718
-0.000123105
0.000467857
-0.000297442
0.000491149
-0.0004707
0.000489728
-0.000661928
0.000547118
-0.000851193
0.000545896
-0.00106866
0.000637398
-0.00126422
0.000578231
-0.00150116
0.000709743
-0.00166971
0.000515623
-0.00184019
0.000483919
-0.00214177
0.000896642
-0.00269687
0.00188135
-0.00217429
-0.00149449
-0.00137244
-0.00305165
-0.00311071
0.00491309
-0.00678725
0.012151
-0.00778962
0.00468572
-0.00484967
-0.00824717
-0.000393488
-0.0139891
0.00323407
-0.0114884
0.00514195
-0.00621356
0.0057273
-0.00193173
0.0055926
0.000576498
0.00553676
0.000510425
0.00669025
-0.00313134
-0.00663211
0.0565604
0.0119288
-0.055873
0.0574144
0.0126521
0.0582117
0.013203
0.0587395
0.0134758
0.0588757
0.0134738
0.0585744
0.0132403
0.0578452
0.0128249
0.0567356
0.0122774
0.0553141
0.0116442
0.0536561
0.0109634
0.0518347
0.0102648
0.0499152
0.00957103
0.0479522
0.00889845
0.0459887
0.00825801
0.0440565
0.00765642
0.0421783
0.0070971
0.0403687
0.00658099
0.0386363
0.0061073
0.0369854
0.00567411
0.0354171
0.00527883
0.0339303
0.00491854
0.0325225
0.00459022
0.0311905
0.00429094
0.0299304
0.0040179
0.0287383
0.00376852
0.0276101
0.00354043
0.0265418
0.00333151
0.0255296
0.00313983
0.0245698
0.00296369
0.023659
0.00280156
0.0227939
0.00265207
0.0219715
0.00251402
0.021189
0.00238634
0.0204437
0.00226807
0.0197333
0.00215836
0.0190555
0.00205645
0.0184081
0.00196169
0.0177892
0.00187343
0.0171971
0.00179118
0.01663
0.00171442
0.0160864
0.00164274
0.0155649
0.00157572
0.015064
0.00151306
0.0145825
0.00145438
0.0141192
0.00139948
0.0136731
0.001348
0.013243
0.00129984
0.0128281
0.00125462
0.0124273
0.00121238
0.0120398
0.00117267
0.0116648
0.00113565
0.0113015
0.00110082
0.0109492
0.00106849
0.0106071
0.00103801
0.0102747
0.00100991
0.0099512
0.000983348
0.00963602
0.000959105
0.00932868
0.000936086
0.00902846
0.0009154
0.00873499
0.000895615
0.00844757
0.000878239
0.00816591
0.000861411
0.00788928
0.000847129
0.00761749
0.000832994
0.00734979
0.000821621
0.0070861
0.000809919
0.0068256
0.000801298
0.00656836
0.000791766
0.00631346
0.000785749
0.00606115
0.000778098
0.0058104
0.000774516
0.00556167
0.000768415
0.00531379
0.00076706
0.00506748
0.000762114
0.00482138
0.000762717
0.00457656
0.000758446
0.00433144
0.000760663
0.00408747
0.000756517
0.00384284
0.000759909
0.0035994
0.000755313
0.00335512
0.000759346
0.00311225
0.000753794
0.00286858
0.000757826
0.00262668
0.000750968
0.00238428
0.000754173
0.00214407
0.000745962
0.00190397
0.000747348
0.00166632
0.000738475
0.00142976
0.000736863
0.0011954
0.000729363
0.000963424
0.000723624
0.000732788
0.000720003
0.000506966
0.000706169
0.000280848
0.000707835
6.12593e-05
0.000687446
-0.000167556
0.000719964
-0.000393982
0.000716154
-0.00064186
0.000794996
-0.000885067
0.000789104
-0.00116182
0.000914156
-0.00140824
0.000824651
-0.0017048
0.0010063
-0.00191234
0.000723158
-0.0021332
0.000704777
-0.00250059
0.00126403
-0.00313481
0.00251557
-0.00248821
-0.00214109
-0.00165592
-0.00388394
-0.00383355
0.00709073
-0.00804818
0.0163656
-0.00883055
0.00546807
-0.00503526
-0.0120425
0.000324165
-0.0193485
0.00467691
-0.0158411
0.00693376
-0.0084704
0.0076305
-0.00262847
0.00752698
0.000680017
0.00755931
0.000478084
0.00907518
-0.00464721
-0.0094892
0.060567
0.0113653
-0.0600035
0.0612518
0.0119672
0.0619671
0.0124878
0.0625899
0.0128529
0.0630228
0.0130408
0.063202
0.0130611
0.0630918
0.012935
0.0626819
0.0126873
0.0619824
0.0123437
0.061018
0.0119278
0.0598231
0.0114597
0.0584371
0.010957
0.0569013
0.0104342
0.0552557
0.00990364
0.053537
0.00937506
0.0517777
0.00885639
0.0500051
0.00835366
0.0482411
0.00787127
0.046503
0.00741218
0.0448037
0.00697816
0.0431523
0.00656995
0.041555
0.00618757
0.0400154
0.00583045
0.0385357
0.00549764
0.0371163
0.00518794
0.0357567
0.00489999
0.0344558
0.0046324
0.0332119
0.00438375
0.032023
0.00415266
0.0308867
0.0039378
0.0298009
0.00373793
0.028763
0.00355189
0.0277707
0.0033786
0.0268217
0.00321705
0.0259138
0.00306635
0.0250446
0.00292565
0.024212
0.0027942
0.0234142
0.00267127
0.0226491
0.00255626
0.021915
0.00244856
0.02121
0.00234769
0.0205327
0.00225309
0.0198813
0.00216442
0.0192545
0.00208117
0.0186509
0.00200312
0.0180691
0.00192977
0.0175079
0.00186103
0.0169662
0.00179637
0.0164427
0.00173585
0.0159365
0.00167889
0.0154465
0.00162568
0.0149717
0.00157557
0.0145112
0.00152895
0.0140643
0.00148499
0.0136298
0.00144434
0.0132073
0.00140593
0.0127956
0.00137074
0.0123943
0.00133738
0.0120025
0.00130723
0.0116196
0.00127849
0.0112448
0.00125305
0.0108777
0.00122856
0.0105173
0.00120751
0.0101634
0.0011869
0.009815
0.00117
0.00947202
0.0011529
0.00913339
0.00113992
0.00879917
0.00112599
0.0084682
0.00111671
0.00814075
0.00110555
0.00781552
0.00109974
0.00749304
0.0010909
0.00717184
0.00108826
0.00685278
0.00108118
0.00653417
0.00108133
0.00621725
0.00107536
0.00590012
0.0010778
0.00558446
0.00107217
0.0052681
0.00107627
0.00495323
0.00107018
0.00463741
0.00107517
0.00432333
0.00106787
0.00400833
0.00107282
0.00369551
0.00106378
0.00338218
0.00106751
0.00307155
0.00105659
0.00276123
0.00105767
0.002454
0.00104571
0.00214838
0.00104249
0.00184562
0.00103212
0.00154625
0.001023
0.00124879
0.00101746
0.00095784
0.000997115
0.000666711
0.000998963
0.000384295
0.000969861
9.12392e-05
0.00101302
-0.000197474
0.00100487
-0.000510847
0.00110837
-0.0008155
0.00109376
-0.00115878
0.00125744
-0.00146118
0.00112705
-0.00182263
0.00136776
-0.00207136
0.000971883
-0.00234812
0.000981539
-0.00277758
0.00169349
-0.00348095
0.00321894
-0.0027148
-0.00290725
-0.00188912
-0.0047096
-0.00449011
0.00969174
-0.00912899
0.0210045
-0.00953132
0.00587037
-0.0047921
-0.0167817
0.0014682
-0.0256088
0.00654414
-0.020917
0.00914845
-0.0110747
0.00996461
-0.00344462
0.00992528
0.000719351
0.0100878
0.000315565
0.0120106
-0.00657
-0.0130011
0.0648525
0.0108805
-0.0643677
0.0654184
0.0114014
0.0660266
0.0118796
0.066612
0.0122675
0.0671121
0.0125408
0.0674783
0.0126949
0.0676753
0.012738
0.0676792
0.0126834
0.0674768
0.0125461
0.0670641
0.0123405
0.0664447
0.0120791
0.0656291
0.0117726
0.064633
0.0114303
0.0634764
0.0110603
0.0621818
0.0106697
0.0607733
0.0102649
0.059275
0.00985189
0.0577105
0.00943581
0.0561013
0.00902135
0.0544669
0.00861254
0.0528242
0.00821273
0.0511871
0.0078246
0.0495674
0.00745018
0.0479741
0.00709091
0.0464144
0.00674768
0.0448934
0.00642098
0.0434149
0.00611092
0.0419813
0.00581735
0.0405941
0.00553989
0.0392538
0.00527803
0.0379606
0.00503114
0.0367139
0.00479855
0.035513
0.00457955
0.0343566
0.00437341
0.0332436
0.00417942
0.0321724
0.00399686
0.0311415
0.00382508
0.0301493
0.00366341
0.0291943
0.00351127
0.0282748
0.00336804
0.0273893
0.00323322
0.0265361
0.00310624
0.0257138
0.00298673
0.0249209
0.00287412
0.0241558
0.00276817
0.0234173
0.0026683
0.0227039
0.00257441
0.0220144
0.00248589
0.0213475
0.00240278
0.0207019
0.00232441
0.0200766
0.00225102
0.0194704
0.00218178
0.0188822
0.00211719
0.0183109
0.00205621
0.0177556
0.00199966
0.0172153
0.00194621
0.016689
0.00189705
0.0161759
0.00185047
0.015675
0.00180819
0.0151855
0.00176794
0.0147065
0.00173207
0.0142374
0.00169766
0.0137771
0.00166783
0.0133252
0.00163879
0.0128805
0.00161465
0.0124429
0.00159051
0.0120111
0.00157176
0.011585
0.00155206
0.0111633
0.00153842
0.0107462
0.00152263
0.0103322
0.00151378
0.0099218
0.0015013
0.00951322
0.00149683
0.00910746
0.00148694
0.00870245
0.00148634
0.00829966
0.00147815
0.00789673
0.00148073
0.00749569
0.00147321
0.00709387
0.0014781
0.00669391
0.00147013
0.00629283
0.00147625
0.00589387
0.00146682
0.00549383
0.00147287
0.00509644
0.00146117
0.00469848
0.00146547
0.00430383
0.00145123
0.0039097
0.0014518
0.00351941
0.001436
0.00313135
0.00143054
0.00274698
0.00141648
0.00236725
0.00140273
0.00199018
0.00139453
0.00162174
0.00136555
0.00125338
0.00136731
0.000896577
0.00132667
0.000527482
0.00138211
0.000166644
0.0013657
-0.000221929
0.00149694
-0.000596393
0.00146822
-0.00101385
0.0016749
-0.00137743
0.00149062
-0.00180889
0.00179922
-0.00210051
0.0012635
-0.00243739
0.00131842
-0.00292164
0.00217774
-0.00368379
0.00398108
-0.00280653
-0.00378451
-0.00201697
-0.00549915
-0.00499261
0.0126674
-0.00990951
0.0259213
-0.00976878
0.00572964
-0.00400417
-0.0225463
0.00313224
-0.0327452
0.00893186
-0.0267166
0.0118834
-0.0140263
0.01283
-0.00439118
0.0128936
0.000655713
0.0132319
-2.27705e-05
0.0156023
-0.0089404
-0.0172136
0.069426
0.0104527
-0.0689982
0.0699099
0.0109175
0.0704309
0.0113586
0.0709533
0.0117451
0.0714375
0.0120566
0.0718496
0.0122828
0.0721638
0.0124239
0.0723605
0.0124867
0.0724258
0.0124808
0.0723496
0.0124166
0.0721252
0.0123036
0.0717487
0.0121491
0.0712195
0.0119595
0.07054
0.0117398
0.0697156
0.0114941
0.0687548
0.0112258
0.0676686
0.0109381
0.0664705
0.010634
0.0651752
0.0103166
0.0637986
0.0099891
0.0623567
0.00965463
0.0608651
0.00931627
0.0593383
0.00897693
0.05779
0.00863928
0.0562319
0.0083057
0.0546747
0.0079782
0.0531272
0.00765847
0.0515967
0.00734782
0.0500893
0.00704727
0.0486098
0.00675753
0.0471619
0.00647906
0.0457483
0.00621212
0.0443711
0.00595679
0.0430315
0.00571302
0.0417303
0.00548064
0.0404677
0.0052594
0.0392438
0.00504902
0.0380581
0.0048491
0.0369101
0.00465933
0.0357989
0.00447924
0.0347236
0.0043085
0.0336832
0.00414664
0.0326766
0.00399336
0.0317025
0.00384814
0.0307599
0.0037108
0.0298475
0.00358076
0.0289639
0.00345795
0.0281081
0.00334172
0.0272787
0.00323219
0.0264745
0.00312855
0.0256944
0.00303117
0.0249371
0.00293904
0.0242015
0.00285283
0.0234864
0.00277126
0.0227907
0.00269537
0.0221134
0.00262352
0.0214532
0.00255721
0.0208094
0.00249433
0.0201806
0.002437
0.019566
0.00238245
0.0189645
0.00233357
0.0183755
0.00228675
0.0177974
0.00224586
0.01723
0.0022062
0.0166718
0.00217288
0.0161225
0.00213982
0.0155805
0.0021137
0.015046
0.00208663
0.014517
0.00206736
0.013994
0.00204564
0.013475
0.0020328
0.0129606
0.00201566
0.0124487
0.00200874
0.0119404
0.00199524
0.0114332
0.00199356
0.0109288
0.00198254
0.0104243
0.0019852
0.00992223
0.00197531
0.00941921
0.00198112
0.00891846
0.00197088
0.00841632
0.00197839
0.00791675
0.00196639
0.00741581
0.0019738
0.00691805
0.00195892
0.00641959
0.00196393
0.00592513
0.00194568
0.00543137
0.00194556
0.00494232
0.00192505
0.00445623
0.00191663
0.00397482
0.00189789
0.00349956
0.00187799
0.00302793
0.00186616
0.00256754
0.00182594
0.00210773
0.00182713
0.00166311
0.00177128
0.00120506
0.00184017
0.000760365
0.0018104
0.000285262
0.00197205
-0.000167813
0.0019213
-0.000667248
0.00217434
-0.00109737
0.00192075
-0.00160359
0.00230543
-0.00193904
0.00159895
-0.00233825
0.00171762
-0.00286647
0.00270596
-0.0036766
0.0047912
-0.00269803
-0.00476308
-0.00196235
-0.00623482
-0.00522873
0.0159338
-0.0102455
0.0309381
-0.00940421
0.00488844
-0.00253804
-0.0294124
0.00544049
-0.0407237
0.0119572
-0.0332333
0.0152582
-0.0173273
0.0163485
-0.0054815
0.0165584
0.00044586
0.0171208
-0.000585105
0.0199748
-0.0117945
-0.0221593
0.0743069
0.0100695
-0.0739237
0.0747316
0.0104928
0.0751866
0.0109035
0.0756513
0.0112804
0.0760998
0.0116081
0.0765075
0.0118751
0.0768547
0.0120768
0.0771266
0.0122147
0.077313
0.0122944
0.0774065
0.0123231
0.0774015
0.0123086
0.0772927
0.0122579
0.0770759
0.0121763
0.0767472
0.0120684
0.0763036
0.0119377
0.0757432
0.0117862
0.0750657
0.0116156
0.0742728
0.0114268
0.0733686
0.0112209
0.0723588
0.0109988
0.0712515
0.0107619
0.0700561
0.0105117
0.0687833
0.0102498
0.0674442
0.00997836
0.0660505
0.00969939
0.0646136
0.00941508
0.0631445
0.00912756
0.0616535
0.00883887
0.0601498
0.00855088
0.0586421
0.0082653
0.0571375
0.00798359
0.0556426
0.00770703
0.0541628
0.00743667
0.0527024
0.00717333
0.0512654
0.00691771
0.0498545
0.00667026
0.0484722
0.00643137
0.0471201
0.00620121
0.0457994
0.00597996
0.0445111
0.00576758
0.0432555
0.00556411
0.0420328
0.00536935
0.0408428
0.00518329
0.0396854
0.0050056
0.0385599
0.00483631
0.0374657
0.00467492
0.0364021
0.00452155
0.0353683
0.00437557
0.0343632
0.00423726
0.033386
0.00410576
0.0324355
0.00398161
0.0315109
0.00386369
0.0306108
0.00375287
0.0297344
0.00364767
0.0288804
0.0035494
0.0280478
0.0034561
0.0272354
0.00336968
0.0264421
0.00328754
0.0256668
0.00321236
0.0249085
0.00314072
0.0241658
0.00307624
0.0234381
0.00301446
0.0227238
0.00296018
0.0220224
0.00290761
0.0213322
0.00286308
0.020653
0.00281908
0.0199828
0.00278388
0.0193217
0.00274774
0.0186675
0.00272149
0.0180207
0.00269242
0.0173789
0.00267461
0.0167429
0.00265167
0.01611
0.00264167
0.0154816
0.00262368
0.0148545
0.00262063
0.0142309
0.00260614
0.0136072
0.00260887
0.0129864
0.00259613
0.0123644
0.00260311
0.0117451
0.00259018
0.011124
0.00259949
0.0105059
0.0025845
0.00988596
0.00259371
0.00926977
0.00257512
0.00865259
0.00258111
0.00804015
0.00255812
0.00742851
0.00255719
0.00682256
0.00253099
0.00622035
0.00251884
0.00562399
0.00249425
0.00503559
0.0024664
0.00445201
0.00244974
0.00388286
0.00239509
0.00331504
0.00239494
0.00276711
0.0023192
0.00220515
0.00240213
0.00166341
0.00235213
0.00108898
0.00254648
0.00054842
0.00246186
-4.01887e-05
0.00276295
-0.000543834
0.00242439
-0.00112886
0.00289046
-0.00150807
0.00197815
-0.00196899
0.00217854
-0.00252725
0.00326423
-0.00337323
0.00563716
-0.00230054
-0.00583577
-0.00162207
-0.00691328
-0.00506047
0.0193722
-0.00996738