/*--------------------------------*- C++ -*----------------------------------*\
| =========                 |                                                 |
| \\      /  F ield         | OpenFOAM: The Open Source CFD Toolbox           |
|  \\    /   O peration     | Version:  2412                                  |
|   \\  /    A nd           | Website:  www.openfoam.com                      |
|    \\/     M anipulation  |                                                 |
\*---------------------------------------------------------------------------*/
FoamFile
{
    version     2.0;
    format      ascii;
    arch        "LSB;label=32;scalar=64";
    class       volVectorField;
    location    "0.565";
    object      U_0;
}
// * * * * * * * * * * * * * * * * * * * * * * * * * * * * * * * * * * * * * //

dimensions      [0 1 -1 0 0 0 0];

internalField   nonuniform List<vector> 
12600
(
(18.7232 1.24744e-21 2.08877)
(11.6157 1.6105e-20 0.449264)
(7.35185 1.8942e-20 -0.47842)
(5.09202 0 -0.709589)
(3.97986 1.71341e-20 -0.682733)
(3.33947 1.59619e-20 -0.608085)
(2.89837 0 -0.540434)
(2.56719 0 -0.485033)
(2.30756 -4.80382e-20 -0.439602)
(2.09738 0 -0.401875)
(1.92296 2.01643e-20 -0.370009)
(1.77536 1.84708e-20 -0.34268)
(1.64848 -1.69281e-20 -0.318941)
(1.53798 0 -0.298097)
(1.44069 -1.42003e-20 -0.279622)
(1.35421 0 -0.263116)
(1.27672 4.7761e-20 -0.248264)
(1.20679 0 -0.234815)
(1.14329 -2.00102e-20 -0.222568)
(1.08531 -1.83114e-20 -0.21136)
(1.03211 1.67261e-20 -0.201057)
(0.983077 5.57652e-24 -0.191546)
(0.937709 0 -0.182734)
(0.895579 -2.5287e-20 -0.174542)
(0.856327 0 -0.166903)
(0.819645 0 -0.159759)
(0.785272 -1.87998e-20 -0.15306)
(0.752979 0 -0.146764)
(0.722568 3.89464e-24 -0.140832)
(0.693868 1.36378e-20 -0.135232)
(0.666726 1.2162e-20 -0.129935)
(0.641008 1.07946e-20 -0.124915)
(0.616595 -9.52806e-21 -0.120149)
(0.593383 -1.67107e-20 -0.115617)
(0.571276 -1.45401e-20 -0.111301)
(0.550189 1.25217e-20 -0.107185)
(0.530047 0 -0.103252)
(0.510781 -8.96134e-21 -0.0994915)
(0.492327 0 -0.0958894)
(0.47463 5.91845e-21 -0.0924356)
(0.457637 0 -0.0891194)
(0.441301 1.72446e-23 -0.0859323)
(0.425578 0 -0.0828651)
(0.41043 1.57067e-23 -0.0799108)
(0.395817 3.7005e-22 -0.0770613)
(0.381709 1.36983e-21 -0.0743111)
(0.36807 -2.98661e-21 -0.0716528)
(0.354878 0 -0.0690822)
(0.342095 0 -0.0665921)
(0.32971 -6.98467e-21 -0.0641799)
(0.317683 -1.61532e-20 -0.0618382)
(0.30601 -1.81239e-20 -0.0595661)
(0.294651 1.9169e-23 -0.0573554)
(0.283609 -2.14613e-20 -0.0552073)
(0.272839 0 -0.0531124)
(0.262357 2.41403e-20 -0.0510743)
(0.252107 2.52385e-20 -0.0490817)
(0.242121 2.61838e-20 -0.0471412)
(0.23233 0 -0.0452391)
(0.222786 0 -0.0433853)
(0.213401 0 -0.041563)
(0.20425 -5.7627e-20 -0.0397866)
(0.195223 0 -0.0380345)
(0.186423 0 -0.0363272)
(0.177711 1.18842e-19 -0.0346372)
(0.169227 0 -0.0329921)
(0.160794 0 -0.0313569)
(0.152598 0 -0.0297683)
(0.144413 -1.19341e-19 -0.028182)
(0.136482 1.18855e-19 -0.0266453)
(0.128521 1.1813e-19 -0.0251029)
(0.120839 2.32688e-23 -0.0236149)
(0.113083 -1.16126e-19 -0.022113)
(0.105643 0 -0.020672)
(0.0980821 1.13447e-19 -0.0192083)
(0.0908817 0 -0.0178141)
(0.0835143 0 -0.0163881)
(0.0765624 0 -0.015042)
(0.0693948 2.88244e-23 -0.0136549)
(0.0627079 2.08994e-19 -0.0123602)
(0.055755 2.04747e-19 -0.0110147)
(0.0493573 -2.00404e-19 -0.00977578)
(0.0426406 -1.9586e-19 -0.00847595)
(0.0365619 0 -0.00729867)
(0.0301067 0 -0.00604933)
(0.0243809 3.6349e-19 -0.0049402)
(0.0182139 -7.07206e-19 -0.00374642)
(0.0128762 6.87529e-19 -0.00271236)
(0.0070154 3.33718e-19 -0.00157757)
(0.0020999 0 -0.000625293)
(-0.00346398 -6.2715e-19 0.000452546)
(-0.00793427 3.03523e-19 0.00131749)
(-0.0132411 -2.93436e-19 0.00234567)
(-0.017183 5.66888e-19 0.00310911)
(-0.0222531 0 0.00409146)
(-0.0255622 0 0.00473194)
(-0.0308177 0 0.00574869)
(-0.0339105 0 0.00634445)
(-0.0401095 0 0.00753992)
(-0.0431855 0 0.00812775)
(-0.0510214 -4.33499e-19 0.00963536)
(-0.0529548 -8.32132e-19 0.00999831)
(-0.0631923 -7.99588e-19 0.011968)
(-0.0614496 0 0.0116287)
(-0.0678859 0 0.0128745)
(-0.0762225 0 0.0144627)
(-0.110401 -6.79624e-19 0.0208676)
(-0.0462855 -1.3377e-18 0.00831245)
(-0.0257584 6.30957e-19 0.00526349)
(-0.112412 0 0.0223046)
(-0.270605 -1.10831e-18 0.0513934)
(-0.248854 0 0.0465387)
(-0.154055 -1.17422e-18 0.0279996)
(-0.000172902 1.15412e-18 -0.00100387)
(0.0518644 -1.10943e-18 -0.010477)
(0.112389 -1.04349e-18 -0.0216622)
(0.0835112 9.74953e-19 -0.0159969)
(0.096532 -5.45067e-26 -0.0185783)
(0.0568859 8.59567e-19 -0.0111354)
(0.127188 0 -0.0247846)
(29.1283 -1.2593e-21 4.01768)
(25.0935 0 1.85337)
(20.2386 -1.91714e-20 -0.216457)
(16.0777 0 -1.21392)
(13.1219 -1.73618e-20 -1.50917)
(11.0815 -3.04997e-20 -1.52018)
(9.61066 -1.4123e-20 -1.44263)
(8.49957 0 -1.34515)
(7.62736 3.56226e-22 -1.24987)
(6.92128 -2.19844e-20 -1.16288)
(6.33576 2.01934e-20 -1.08486)
(5.84081 1.85462e-20 -1.0151)
(5.41584 -1.70313e-20 -0.952582)
(5.0462 1.56372e-20 -0.896338)
(4.72116 2.87627e-20 -0.845508)
(4.43263 0 -0.799361)
(4.17444 -6.50695e-23 -0.757277)
(3.94176 2.21318e-20 -0.718737)
(3.73075 2.03013e-20 -0.683301)
(3.53834 0 -0.650599)
(3.36202 0 -0.620317)
(3.19973 1.54708e-20 -0.592186)
(3.04975 0 -0.565975)
(2.91065 1.28186e-20 -0.541486)
(2.7812 -2.32671e-20 -0.518549)
(2.66037 0 -0.497012)
(2.54728 1.9054e-20 -0.476746)
(2.44115 0 -0.457635)
(2.34132 -1.54274e-20 -0.43958)
(2.24721 -2.76285e-20 -0.422489)
(2.1583 -2.46342e-20 -0.406284)
(2.07415 -1.09261e-20 -0.390893)
(1.99435 9.64146e-21 -0.376253)
(1.91855 3.38268e-20 -0.362306)
(1.84643 2.94263e-20 -0.349001)
(1.77772 0 -0.336293)
(1.71214 0 -0.324137)
(1.64948 -1.6978e-23 -0.312496)
(1.58951 0 -0.301334)
(1.53206 -5.97491e-21 -0.29062)
(1.47695 0 -0.280324)
(1.42402 -6.72791e-21 -0.27042)
(1.37312 0 -0.26088)
(1.32413 -2.31999e-21 -0.251686)
(1.27691 0 -0.242812)
(1.23137 -1.37933e-21 -0.234243)
(1.18738 0 -0.225955)
(1.14486 0 -0.217937)
(1.10371 5.77626e-21 -0.210167)
(1.06386 0 -0.202638)
(1.02521 0 -0.195325)
(0.987725 0 -0.188229)
(0.951278 1.99379e-20 -0.181322)
(0.915878 4.30016e-20 -0.17461)
(0.881379 0 -0.168062)
(0.847827 0 -0.161691)
(0.81505 -2.52137e-20 -0.155461)
(0.783138 -2.61825e-20 -0.149395)
(0.751881 0 -0.143446)
(0.721426 0 -0.13765)
(0.69151 0 -0.13195)
(0.662352 0 -0.126396)
(0.633617 -5.81319e-20 -0.120916)
(0.605617 5.8688e-20 -0.115578)
(0.577924 -1.18164e-19 -0.110292)
(0.550965 0 -0.105149)
(0.524193 0 -0.100034)
(0.498177 0 -0.0950684)
(0.472223 4.67033e-23 -0.0901058)
(0.447072 -1.17718e-19 -0.0853036)
(0.421853 -1.16894e-19 -0.0804783)
(0.397512 2.31759e-19 -0.0758291)
(0.372966 3.55228e-23 -0.0711298)
(0.349401 -1.13323e-19 -0.0666281)
(0.325489 -1.11833e-19 -0.0620477)
(0.302694 0 -0.0576927)
(0.279403 0 -0.0532294)
(0.257399 0 -0.0490253)
(0.234743 2.09077e-19 -0.0446823)
(0.213576 0 -0.0406386)
(0.191598 0 -0.0364243)
(0.171341 1.96139e-19 -0.032555)
(0.150104 1.91487e-19 -0.028482)
(0.130849 0 -0.0248047)
(0.110429 0 -0.0208882)
(0.0922851 0 -0.0174233)
(0.0727631 6.88343e-19 -0.0136796)
(0.0558449 -4.63961e-23 -0.0104484)
(0.0372783 3.24075e-19 -0.00688934)
(0.0216995 -3.14017e-19 -0.00391212)
(0.00406505 6.07766e-19 -0.000534235)
(-0.0100886 2.93794e-19 0.00217444)
(-0.0268985 5.67516e-19 0.00539078)
(-0.0393706 0 0.00777948)
(-0.055441 0 0.0108502)
(-0.065968 0 0.0128764)
(-0.082611 0 0.0160624)
(-0.092349 4.6986e-19 0.0179544)
(-0.111718 0 0.0216646)
(-0.121055 0 0.0234968)
(-0.145092 -4.15639e-19 0.0280821)
(-0.150529 3.98566e-19 0.0291797)
(-0.181525 1.53037e-18 0.0350627)
(-0.175071 -7.34148e-19 0.033793)
(-0.197485 0 0.0381778)
(-0.22089 0 0.0432204)
(-0.313157 0 0.0597696)
(-0.124186 6.3708e-19 0.021982)
(-0.0931171 -6.00484e-19 0.0191617)
(-0.348851 0 0.0718343)
(-0.782287 2.10575e-18 0.15273)
(-0.680494 1.08176e-18 0.128718)
(-0.405025 2.22728e-18 0.0730236)
(0.0385764 0 -0.0111959)
(0.176659 0 -0.0360287)
(0.348839 -9.87613e-19 -0.0675515)
(0.258365 0 -0.0493405)
(0.303702 -8.6377e-19 -0.0579843)
(0.191127 -8.11834e-19 -0.0371355)
(0.406841 0 -0.0795135)
(31.872 0 3.88533)
(31.0621 0 2.81022)
(28.538 -1.2999e-20 1.01733)
(25.201 0 -0.387493)
(21.9548 0 -1.23025)
(19.1866 1.51593e-20 -1.65444)
(16.9321 1.33746e-20 -1.82251)
(15.11 0 -1.85406)
(13.6246 4.20871e-22 -1.82039)
(12.3961 2.08272e-20 -1.75795)
(11.364 -3.80526e-20 -1.68423)
(10.4843 -1.75724e-20 -1.60759)
(9.72465 1.14792e-22 -1.532)
(9.06141 -1.48174e-20 -1.4593)
(8.47662 -1.36009e-20 -1.39031)
(7.9566 1.24292e-20 -1.32526)
(7.49068 -2.28867e-20 -1.26415)
(7.07048 -2.0973e-20 -1.20682)
(6.68925 0 -1.15305)
(6.34155 0 -1.1026)
(6.02293 1.60253e-20 -1.05522)
(5.7297 1.4628e-20 -1.01067)
(5.45879 0 -0.968729)
(5.2076 0 -0.929188)
(4.97396 2.2047e-20 -0.891855)
(4.75598 0 -0.856558)
(4.55205 -3.61024e-20 -0.823137)
(4.36079 1.62704e-20 -0.791448)
(4.18099 0 -0.761361)
(4.01158 1.30906e-20 -0.732757)
(3.85164 1.16721e-20 -0.705528)
(3.70035 0 -0.679575)
(3.55699 -9.14601e-21 -0.654808)
(3.4209 -1.60287e-20 -0.631147)
(3.2915 1.17548e-23 -0.608515)
(3.16829 0 -0.586845)
(3.05079 0 -0.566072)
(2.93859 8.58954e-21 -0.546141)
(2.83129 0 -0.526996)
(2.72856 0 -0.50859)
(2.63008 0 -0.490875)
(2.53556 0 -0.473812)
(2.44473 0 -0.457359)
(2.35736 0 -0.441482)
(2.27322 0 -0.426144)
(2.19211 1.26324e-21 -0.411319)
(2.11383 -2.79156e-21 -0.396969)
(2.03822 0 -0.383077)
(1.96508 -5.46488e-21 -0.369604)
(1.89432 0 -0.356543)
(1.82572 0 -0.34385)
(1.75923 1.71259e-20 -0.331528)
(1.69464 0 -0.319529)
(1.63193 -2.0316e-20 -0.307866)
(1.57087 2.16167e-20 -0.296483)
(1.51152 0 -0.285408)
(1.45358 2.38325e-20 -0.274573)
(1.3972 0 -0.264022)
(1.34202 0 -0.253673)
(1.28828 0 -0.243591)
(1.23554 5.33075e-20 -0.233672)
(1.18415 5.41868e-20 -0.22401)
(1.13354 2.79736e-23 -0.214472)
(1.08425 -1.1081e-19 -0.205185)
(1.03553 2.45429e-23 -0.195985)
(0.988117 0 -0.187038)
(0.941071 0 -0.178136)
(0.895358 -1.11912e-19 -0.169498)
(0.849792 3.75922e-23 -0.160861)
(0.805635 0 -0.152508)
(0.761396 0 -0.14411)
(0.718688 -1.09259e-19 -0.136023)
(0.675658 2.85761e-23 -0.127845)
(0.634333 2.66262e-23 -0.120015)
(0.592437 0 -0.112043)
(0.552475 0 -0.104468)
(0.511681 -2.04193e-19 -0.0966985)
(0.473108 2.00642e-19 -0.089386)
(0.433434 0 -0.0818236)
(0.396327 0 -0.0747889)
(0.357837 0 -0.0674481)
(0.322317 0 -0.060715)
(0.285115 0 -0.053617)
(0.25134 0 -0.0472161)
(0.215555 0 -0.0403873)
(0.183717 0 -0.0343541)
(0.149487 -6.47133e-19 -0.027823)
(0.119793 -3.14178e-19 -0.0221949)
(0.0872181 -3.04589e-19 -0.0159834)
(0.0598753 2.95075e-19 -0.0107957)
(0.0289248 -5.70924e-19 -0.00490073)
(0.00410174 -2.75959e-19 -0.000179437)
(-0.0253896 -2.66463e-19 0.00542625)
(-0.0472514 0 0.00958912)
(-0.0754598 0 0.0149397)
(-0.0939802 0 0.0185044)
(-0.123146 0 0.0240625)
(-0.140116 -4.40807e-19 0.0273883)
(-0.173673 0 0.0337876)
(-0.189465 0 0.0369347)
(-0.230491 3.89715e-19 0.0446763)
(-0.239098 0 0.0464873)
(-0.291442 -7.17164e-19 0.0562353)
(-0.279089 6.87981e-19 0.0537265)
(-0.320779 0 0.0621637)
(-0.35683 0 0.0707068)
(-0.49858 0 0.09338)
(-0.188937 5.96469e-19 0.0306031)
(-0.17565 0 0.0385353)
(-0.592625 -5.10969e-19 0.128374)
(-1.2625 -2.1533e-22 0.248283)
(-1.04515 -1.01242e-18 0.191366)
(-0.599859 -2.08353e-18 0.0987861)
(0.11823 0 -0.0350876)
(0.325769 9.8283e-19 -0.069031)
(0.602303 9.23792e-19 -0.117118)
(0.446889 8.62433e-19 -0.0847678)
(0.531716 0 -0.100943)
(0.351094 7.59093e-19 -0.0692413)
(0.717798 0 -0.142191)
(32.3954 0 2.94151)
(32.9632 0 2.75731)
(32.413 1.22884e-20 1.71461)
(30.7739 0 0.51475)
(28.5251 -1.23395e-20 -0.489414)
(26.113 2.51032e-20 -1.21173)
(23.7972 0 -1.67446)
(21.6937 -2.19293e-20 -1.93847)
(19.8363 2.1032e-20 -2.06764)
(18.2153 1.90296e-20 -2.11196)
(16.8035 1.78916e-20 -2.10523)
(15.5696 -1.62704e-20 -2.06868)
(14.4854 1.51534e-20 -2.01528)
(13.5264 -2.76413e-20 -1.95284)
(12.6728 0 -1.88609)
(11.9083 -2.34472e-20 -1.81789)
(11.2194 0 -1.75)
(10.5956 0 -1.68346)
(10.0276 0 -1.61888)
(9.50835 1.65385e-20 -1.55662)
(9.03151 -3.44633e-23 -1.49683)
(8.592 -2.62594e-23 -1.43956)
(8.18544 1.25906e-20 -1.3848)
(7.80815 0 -1.33249)
(7.45696 0 -1.28253)
(7.12917 0 -1.23484)
(6.82242 3.41294e-20 -1.18929)
(6.53467 -6.30526e-24 -1.14578)
(6.26414 0 -1.1042)
(6.00926 0 -1.06443)
(5.76865 0 -1.02638)
(5.54109 0 -0.989945)
(5.3255 1.72997e-20 -0.95503)
(5.12092 0 -0.921549)
(4.92647 -1.31946e-20 -0.889418)
(4.74137 0 -0.858559)
(4.56492 0 -0.828898)
(4.3965 -8.14277e-21 -0.800369)
(4.23552 0 -0.772903)
(4.08147 0 -0.746445)
(3.93386 4.16563e-21 -0.720934)
(3.79226 -6.08921e-21 -0.696321)
(3.65626 0 -0.672552)
(3.52552 -2.13969e-21 -0.649586)
(3.39967 0 -0.62737)
(3.27844 -2.36763e-21 -0.605875)
(3.16148 1.85132e-23 -0.585048)
(3.04859 0 -0.564868)
(2.93946 0 -0.545281)
(2.83393 6.2125e-21 -0.526278)
(2.73169 1.43811e-20 -0.5078)
(2.63265 -3.23137e-20 -0.489851)
(2.53649 0 -0.472364)
(2.4432 -1.91306e-20 -0.455358)
(2.35242 -2.04054e-20 -0.438756)
(2.26422 -2.14852e-20 -0.422596)
(2.17819 -2.24509e-20 -0.406782)
(2.09451 0 -0.391379)
(2.01266 0 -0.376268)
(1.93299 -4.92394e-20 -0.361544)
(1.85485 -1.00535e-19 -0.347057)
(1.77874 -5.11074e-20 -0.332942)
(1.70386 3.00308e-23 -0.319008)
(1.63094 5.223e-20 -0.30544)
(1.55892 5.25534e-20 -0.291997)
(1.48885 0 -0.278925)
(1.41938 0 -0.265917)
(1.35188 1.05463e-19 -0.253295)
(1.28465 2.10157e-19 -0.240676)
(1.2195 0 -0.228469)
(1.15428 1.0375e-19 -0.216199)
(1.09131 1.02838e-19 -0.204382)
(1.02792 1.01772e-19 -0.192431)
(0.967013 2.01075e-19 -0.180989)
(0.905318 0 -0.169339)
(0.846441 0 -0.158268)
(0.786388 1.92151e-19 -0.146912)
(0.729565 -3.77509e-19 -0.136222)
(0.671168 -1.85111e-19 -0.125167)
(0.616499 0 -0.114881)
(0.55984 0 -0.104146)
(0.507495 0 -0.0942977)
(0.452717 0 -0.083914)
(0.402927 0 -0.0745475)
(0.350211 0 -0.0645527)
(0.303257 -3.12817e-19 -0.0557211)
(0.252803 4.4484e-23 -0.046157)
(0.208997 2.94995e-19 -0.0379159)
(0.160954 0 -0.0288151)
(0.120615 2.76965e-19 -0.0212174)
(0.0749522 2.67942e-19 -0.0125779)
(0.0383541 0 -0.00566743)
(-0.00514022 -2.49981e-19 0.00254155)
(-0.0373565 -4.82205e-19 0.00863642)
(-0.0789776 0 0.0164716)
(-0.10635 0 0.021727)
(-0.14928 0 0.0298655)
(-0.174102 -4.13197e-19 0.0347507)
(-0.222926 0 0.044019)
(-0.245347 0 0.0485421)
(-0.304154 3.65123e-19 0.0595419)
(-0.315555 -3.49975e-19 0.0620492)
(-0.389792 0 0.075659)
(-0.370453 0 0.0717164)
(-0.434651 0 0.0849664)
(-0.479806 0 0.0966527)
(-0.662975 0 0.1227)
(-0.239791 -6.12504e-23 0.0357697)
(-0.270941 0 0.062282)
(-0.834411 4.78148e-19 0.189209)
(-1.69854 -9.21799e-19 0.337328)
(-1.33157 0 0.237517)
(-0.73259 3.31617e-22 0.109166)
(0.24186 0 -0.0703002)
(0.501834 -5.87865e-23 -0.108641)
(0.875072 0 -0.170682)
(0.652885 -8.06345e-19 -0.123223)
(0.784689 0 -0.148295)
(0.540955 7.09511e-19 -0.107548)
(1.06239 0 -0.212534)
(32.4995 0 2.08833)
(33.2581 0 2.21528)
(33.6064 0 1.7415)
(33.2446 0 0.948657)
(32.225 1.16476e-20 0.107859)
(30.7547 -9.00421e-22 -0.640487)
(29.0388 0 -1.24099)
(27.236 2.06983e-20 -1.68447)
(25.4556 0 -1.98804)
(23.7639 -3.54226e-20 -2.1799)
(22.1931 0 -2.2886)
(20.7534 1.53604e-20 -2.33809)
(19.4423 0 -2.34666)
(18.2511 2.60977e-20 -2.32754)
(17.1688 -1.18949e-20 -2.29003)
(16.1837 2.19926e-20 -2.24057)
(15.285 -2.01472e-20 -2.1836)
(14.4628 -1.85065e-20 -2.12219)
(13.7084 0 -2.05844)
(13.014 -1.56169e-20 -1.99381)
(12.3731 -1.42806e-20 -1.92928)
(11.7797 -2.60441e-20 -1.86555)
(11.2288 -1.18889e-20 -1.80306)
(10.7162 0 -1.74212)
(10.2378 0 -1.68291)
(9.79037 0 -1.62554)
(9.37099 -1.61079e-20 -1.57006)
(8.97707 -1.45228e-20 -1.51649)
(8.6063 0 -1.46479)
(8.25669 0 -1.41495)
(7.92642 1.04222e-20 -1.36692)
(7.61391 0 -1.32062)
(7.31771 1.15066e-24 -1.276)
(7.03654 -1.43293e-20 -1.233)
(6.76925 1.24709e-20 -1.19155)
(6.5148 0 -1.15157)
(6.27225 0 -1.11301)
(6.04073 7.68531e-21 -1.07579)
(5.81947 0 -1.03986)
(5.60776 0 -1.00515)
(5.40495 -3.93095e-21 -0.971606)
(5.21046 5.74581e-21 -0.939171)
(5.02372 0 -0.907784)
(4.84425 2.01876e-21 -0.877405)
(4.67156 0 -0.84797)
(4.50526 1.10763e-21 -0.819449)
(4.34491 2.47013e-21 -0.791777)
(4.1902 0 -0.764933)
(4.0407 4.82171e-21 -0.73885)
(3.8962 -5.85873e-21 -0.71352)
(3.75628 -2.70928e-20 -0.688869)
(3.62081 1.52206e-20 -0.664904)
(3.48935 -1.66811e-20 -0.64154)
(3.36188 2.49378e-23 -0.618806)
(3.23789 0 -0.596597)
(3.1175 2.02506e-20 -0.574971)
(3.00013 2.11587e-20 -0.553798)
(2.88602 -2.19277e-20 -0.533169)
(2.77449 2.2604e-20 -0.512923)
(2.66597 4.63906e-20 -0.49319)
(2.55959 4.73379e-20 -0.47377)
(2.45604 -4.80783e-20 -0.454845)
(2.35421 4.8709e-20 -0.43616)
(2.25508 0 -0.417963)
(2.15726 0 -0.399931)
(2.0621 4.96081e-20 -0.382394)
(1.96781 0 -0.364943)
(1.87622 0 -0.348008)
(1.78506 -9.88706e-20 -0.331075)
(1.69672 0 -0.314695)
(1.60835 -9.76128e-20 -0.298228)
(1.52302 -1.9345e-19 -0.28237)
(1.43717 0 -0.26633)
(1.35468 -9.45366e-20 -0.250972)
(1.27118 0 -0.235333)
(1.19146 0 -0.220471)
(1.1102 -1.80537e-19 -0.205224)
(1.03326 1.77388e-19 -0.19087)
(0.954248 3.95617e-23 -0.176022)
(0.880221 0 -0.162205)
(0.803552 0 -0.147782)
(0.732651 0 -0.134549)
(0.658503 -1.58972e-19 -0.12059)
(0.591034 1.55009e-19 -0.107999)
(0.519642 0 -0.0945555)
(0.455987 5.87241e-19 -0.0826788)
(0.387616 2.8521e-19 -0.0698073)
(0.328207 -5.53612e-19 -0.0587207)
(0.263062 -2.68253e-19 -0.0464668)
(0.208347 -5.19612e-19 -0.0362429)
(0.146407 0 -0.0246082)
(0.0967959 0 -0.0153118)
(0.0378153 2.34398e-19 -0.00426762)
(-0.00583725 4.52075e-19 0.00393389)
(-0.0622991 -4.35535e-19 0.0144754)
(-0.0994686 0 0.0215948)
(-0.157519 0 0.0325353)
(-0.190844 3.8714e-19 0.0391236)
(-0.256082 3.71672e-19 0.0514357)
(-0.285284 0 0.0574008)
(-0.362687 -3.41947e-19 0.0717145)
(-0.376469 3.27713e-19 0.0749008)
(-0.473141 0 0.0922635)
(-0.445849 0 0.0866827)
(-0.535523 0 0.105582)
(-0.585182 0 0.119874)
(-0.803096 0 0.145867)
(-0.275963 -5.22322e-19 0.0369138)
(-0.374455 0 0.0903987)
(-1.06272 0 0.252093)
(-2.0778 0 0.415563)
(-1.53084 8.84596e-19 0.261396)
(-0.798918 9.10777e-19 0.100439)
(0.411686 0 -0.118775)
(0.707771 -8.59225e-19 -0.155942)
(1.17001 0 -0.228727)
(0.880961 -7.53716e-19 -0.16548)
(1.06705 0 -0.200949)
(0.76493 -6.63064e-19 -0.153531)
(1.44256 0 -0.291534)
(32.5729 -5.00764e-21 1.4737)
(33.1568 -6.21095e-21 1.61453)
(33.6842 7.37106e-21 1.42464)
(33.9111 8.30444e-21 0.964712)
(33.7205 0 0.373735)
(33.1244 -9.95115e-21 -0.241339)
(32.1959 0 -0.814731)
(31.0257 1.74995e-20 -1.30945)
(29.7026 1.67379e-20 -1.71007)
(28.3025 3.22939e-20 -2.01701)
(26.8849 -1.48666e-20 -2.23996)
(25.4918 1.38795e-20 -2.39238)
(24.1505 0 -2.48816)
(22.8765 0 -2.53991)
(21.677 1.12143e-20 -2.55824)
(20.554 -1.14768e-22 -2.55168)
(19.5057 1.76463e-22 -2.52686)
(18.5288 1.36274e-22 -2.48885)
(17.6187 0 -2.44149)
(16.7705 0 -2.38765)
(15.9794 0 -2.32949)
(15.2408 2.44723e-20 -2.26861)
(14.5501 1.11448e-20 -2.20622)
(13.9033 0 -2.1432)
(13.2967 0 -2.08022)
(12.7269 1.674e-20 -2.01775)
(12.1909 0 -1.95616)
(11.6857 0 -1.89569)
(11.209 0 -1.83652)
(10.7585 0 -1.77877)
(10.3321 -6.67286e-24 -1.72252)
(9.92792 0 -1.6678)
(9.54432 -1.84867e-24 -1.61465)
(9.17976 1.35075e-20 -1.56305)
(8.83287 2.2099e-24 -1.51298)
(8.50237 0 -1.46443)
(8.18711 0 -1.41736)
(7.88604 0 -1.37173)
(7.5982 0 -1.32749)
(7.3227 0 -1.2846)
(7.05872 0 -1.24301)
(6.80554 0 -1.20268)
(6.56243 -3.61838e-21 -1.16355)
(6.3288 -1.93754e-21 -1.12558)
(6.104 0 -1.08871)
(5.88755 1.0097e-21 -1.05291)
(5.67888 0 -1.01812)
(5.47758 0 -0.984315)
(5.28313 -9.06789e-21 -0.951418)
(5.09523 0 -0.919431)
(4.91334 1.27437e-20 -0.888261)
(4.7373 0 -0.857928)
(4.56653 3.13888e-20 -0.828325)
(4.401 2.41372e-23 -0.799497)
(4.24007 0 -0.771312)
(4.08387 0 -0.743847)
(3.93165 0 -0.716941)
(3.78374 4.12573e-20 -0.690713)
(3.63924 -4.25274e-20 -0.664957)
(3.49869 -4.35867e-20 -0.639845)
(3.36099 -4.44777e-20 -0.61512)
(3.227 9.04364e-20 -0.591018)
(3.09531 4.57657e-20 -0.567214)
(2.96717 0 -0.544027)
(2.84077 0 -0.521044)
(2.71786 -2.39367e-23 -0.498688)
(2.59614 0 -0.476437)
(2.47793 0 -0.454842)
(2.36035 -9.28716e-20 -0.433244)
(2.24642 0 -0.412352)
(2.13251 0 -0.391343)
(2.02252 1.81734e-19 -0.371111)
(1.91192 -8.98612e-20 -0.350641)
(1.80564 0 -0.331043)
(1.69811 0 -0.31108)
(1.59541 0 -0.292109)
(1.4908 1.69552e-19 -0.272639)
(1.3917 0 -0.25431)
(1.28998 3.26543e-19 -0.235343)
(1.19461 -1.59934e-19 -0.217694)
(1.09589 0 -0.19926)
(1.00452 0 -0.182347)
(0.909007 1.49177e-19 -0.164497)
(0.822017 -2.71839e-23 -0.148397)
(0.730005 1.41538e-19 -0.131196)
(0.647888 -2.75392e-19 -0.116001)
(0.55971 2.67403e-19 -0.099521)
(0.483034 2.5955e-19 -0.0853303)
(0.398959 2.51512e-19 -0.0696328)
(0.328327 3.37489e-23 -0.056542)
(0.248357 0 -0.0416346)
(0.184346 -2.27526e-19 -0.0297346)
(0.108213 0 -0.015596)
(0.0519112 0 -0.00509528)
(-0.0209893 4.08015e-19 0.00840426)
(-0.0689964 0 0.0175695)
(-0.143654 0 0.031548)
(-0.186167 0 0.0399766)
(-0.269042 -3.48001e-19 0.0555124)
(-0.305159 0 0.0629712)
(-0.402002 -3.2003e-19 0.0806633)
(-0.417716 0 0.0845012)
(-0.537342 0 0.105533)
(-0.501225 0 0.0982181)
(-0.619003 0 0.123391)
(-0.667654 0 0.139416)
(-0.91518 -4.96793e-19 0.16273)
(-0.295799 -4.88432e-19 0.0342602)
(-0.479746 4.60654e-19 0.121834)
(-1.26425 0 0.314321)
(-2.38704 0 0.480179)
(-1.634 -1.65359e-18 0.262542)
(-0.794036 0 0.0726798)
(0.630291 8.35805e-19 -0.180547)
(0.947364 0 -0.211405)
(1.49063 7.54667e-19 -0.291851)
(1.13646 7.04335e-19 -0.212615)
(1.38349 0 -0.259867)
(1.02772 -6.19454e-19 -0.20799)
(1.86017 0 -0.379579)
(32.6285 4.71584e-21 1.02123)
(33.04 1.14541e-20 1.10928)
(33.4866 -6.94314e-21 1.02722)
(33.8524 -7.80027e-22 0.764741)
(34.0269 7.5239e-21 0.375273)
(33.9539 0 -0.0792582)
(33.6256 0 -0.549751)
(33.0622 -1.64783e-20 -1.00049)
(32.2989 -3.06194e-20 -1.40786)
(31.3781 -7.08637e-22 -1.75884)
(30.3432 1.39977e-20 -2.04892)
(29.2348 -1.30682e-20 -2.27945)
(28.0876 1.1825e-20 -2.45523)
(26.93 0 -2.58285)
(25.7834 0 -2.66947)
(24.6632 -9.61548e-21 -2.72207)
(23.58 3.52068e-20 -2.74703)
(22.5403 3.24218e-20 -2.74992)
(21.5474 0 -2.73544)
(20.6029 0 -2.70746)
(19.7064 0 -2.66915)
(18.8569 -6.7616e-23 -2.62305)
(18.0526 -2.09354e-20 -2.57118)
(17.2913 9.51798e-21 -2.51514)
(16.5709 1.7315e-20 -2.45622)
(15.8888 -3.14747e-20 -2.39541)
(15.2428 1.42205e-20 -2.33349)
(14.6305 1.28331e-20 -2.27108)
(14.0498 1.15433e-20 -2.20867)
(13.4985 0 -2.14661)
(12.9748 -9.24461e-21 -2.0852)
(12.4768 8.19994e-21 -2.02465)
(12.0027 -7.24797e-21 -1.96512)
(11.5511 -1.27097e-20 -1.90674)
(11.1205 -2.21343e-20 -1.84957)
(10.7094 0 -1.79369)
(10.3166 0 -1.73912)
(9.94106 -6.83676e-21 -1.68589)
(9.58155 0 -1.63398)
(9.23711 4.52966e-21 -1.58341)
(8.9068 3.51007e-21 -1.53414)
(8.58976 0 -1.48617)
(8.28517 6.82542e-21 -1.43945)
(7.99231 1.82335e-21 -1.39397)
(7.71042 0 -1.34968)
(7.43893 -9.50089e-22 -1.30656)
(7.17713 -2.14372e-21 -1.26454)
(6.92457 0 -1.22362)
(6.68057 8.50254e-21 -1.18373)
(6.4448 -5.14986e-21 -1.14486)
(6.21658 -1.19349e-20 -1.10693)
(5.99573 0 -1.06996)
(5.78152 -2.43556e-23 -1.03383)
(5.57393 3.18262e-20 -0.998598)
(5.37215 0 -0.964117)
(5.17636 0 -0.930487)
(4.98561 -1.86686e-20 -0.897509)
(4.80032 -1.93856e-20 -0.865337)
(4.61935 3.9945e-20 -0.83372)
(4.4434 4.09725e-20 -0.802878)
(4.27108 4.18064e-20 -0.772489)
(4.10346 -4.24842e-20 -0.742854)
(3.93878 -8.59902e-20 -0.713568)
(3.77859 0 -0.685034)
(3.62066 0 -0.656736)
(3.46712 -8.75921e-20 -0.629207)
(3.31514 0 -0.601793)
(3.16758 0 -0.575185)
(3.02085 8.72265e-20 -0.548562)
(2.87871 0 -0.522808)
(2.73667 -8.60516e-20 -0.4969)
(2.59951 -3.20176e-23 -0.471949)
(2.46167 8.43626e-20 -0.446694)
(2.32918 0 -0.422515)
(2.19519 0 -0.397875)
(2.06721 0 -0.374461)
(1.93687 1.59016e-19 -0.350418)
(1.81337 0 -0.327787)
(1.68663 -1.53156e-19 -0.304353)
(1.56775 3.00014e-19 -0.282549)
(1.44472 0 -0.259761)
(1.33077 0 -0.238855)
(1.21169 0 -0.216773)
(1.10314 -2.69435e-23 -0.196859)
(0.988346 -1.32688e-19 -0.175565)
(0.885819 -2.58051e-19 -0.15676)
(0.775721 -2.50622e-19 -0.136344)
(0.679934 2.43154e-19 -0.118772)
(0.574879 0 -0.0993142)
(0.486614 2.28142e-19 -0.0830975)
(0.386644 0 -0.0646155)
(0.306681 2.13115e-19 -0.0498766)
(0.211524 0 -0.0323613)
(0.141212 0 -0.0193522)
(0.0500818 0 -0.00262698)
(-0.00990712 -3.6748e-19 0.00878213)
(-0.1028 -3.53317e-19 0.0260444)
(-0.155227 0 0.0364576)
(-0.257059 3.25628e-19 0.0553927)
(-0.300206 -3.1216e-19 0.0643948)
(-0.417387 2.99445e-19 0.0855012)
(-0.434546 -2.86885e-19 0.0899639)
(-0.577661 0 0.114512)
(-0.531928 0 0.105385)
(-0.679942 0 0.137381)
(-0.721371 0 0.154101)
(-0.995327 4.64545e-19 0.172262)
(-0.296569 3.74066e-23 0.0275767)
(-0.57823 -8.61413e-19 0.155155)
(-1.42427 0 0.372654)
(-2.61325 0 0.527611)
(-1.63401 7.72569e-19 0.238296)
(-0.713337 0 0.0246824)
(0.900316 -7.81063e-19 -0.256234)
(1.22525 0 -0.275849)
(1.8411 -1.41027e-18 -0.360774)
(1.4255 0 -0.265818)
(1.73885 0 -0.326047)
(1.3343 5.78667e-19 -0.27211)
(2.31686 0 -0.477195)
(32.654 0 0.667708)
(32.9558 -5.27222e-21 0.711837)
(33.2931 0 0.663117)
(33.624 -6.62556e-21 0.500779)
(33.8855 -1.35095e-20 0.239649)
(34.0267 0 -0.0885506)
(34.0193 6.74159e-21 -0.452403)
(33.8519 0 -0.825814)
(33.5249 9.00041e-22 -1.18859)
(33.048 -2.59746e-20 -1.52628)
(32.4371 0 -1.82956)
(31.7125 0 -2.09353)
(30.8963 -1.11221e-20 -2.31661)
(30.0108 0 -2.49952)
(29.0771 0 -2.64455)
(28.1138 0 -2.75495)
(27.1373 -1.64471e-20 -2.8345)
(26.1609 -1.51618e-20 -2.88714)
(25.1951 -1.37677e-20 -2.91675)
(24.2478 0 -2.92695)
(23.325 0 -2.92102)
(22.4306 -1.07511e-20 -2.90185)
(21.5672 9.82028e-21 -2.87197)
(20.7363 -8.95193e-21 -2.8335)
(19.9383 -1.62852e-20 -2.78826)
(19.1733 2.94854e-20 -2.73774)
(18.4407 -5.47451e-23 -2.68321)
(17.7397 -1.20695e-20 -2.62569)
(17.0693 -1.08563e-20 -2.56603)
(16.4283 0 -2.50493)
(15.8153 0 -2.44296)
(15.2291 -7.71148e-21 -2.38057)
(14.6685 0 -2.31813)
(14.132 1.19521e-20 -2.25595)
(13.6184 1.04058e-20 -2.19426)
(13.1265 -8.96905e-21 -2.13325)
(12.6552 0 -2.07306)
(12.2032 6.42845e-21 -2.01381)
(11.7697 5.30159e-21 -1.95557)
(11.3534 3.34422e-24 -1.89843)
(10.9535 -6.60461e-21 -1.84241)
(10.5691 0 -1.78755)
(10.1993 -3.21525e-21 -1.73384)
(9.84329 0 -1.68132)
(9.50029 0 -1.62996)
(9.16966 0 -1.57976)
(8.8506 1.33376e-23 -1.53069)
(8.54261 0 -1.48276)
(8.24491 -3.98876e-21 -1.43588)
(7.95713 9.66658e-21 -1.39011)
(7.67849 1.12154e-20 -1.34533)
(7.40878 0 -1.3016)
(7.14714 -1.38356e-20 -1.25878)
(6.89356 -2.9858e-20 -1.21696)
(6.64707 0 -1.17596)
(6.4079 0 -1.13592)
(6.1749 1.75364e-20 -1.09661)
(5.94859 1.81723e-20 -1.05821)
(5.72759 -1.87501e-20 -1.02044)
(5.51277 -3.84142e-20 -0.983555)
(5.30241 0 -0.947182)
(5.09784 0 -0.91169)
(4.8969 2.7914e-23 -0.876585)
(4.70149 -4.06959e-20 -0.842368)
(4.50888 0 -0.808407)
(4.32168 4.10997e-20 -0.775359)
(4.13643 0 -0.742427)
(3.95661 0 -0.710458)
(3.77786 0 -0.67845)
(3.60472 0 -0.647484)
(3.43174 3.38855e-23 -0.616312)
(3.26474 -3.16996e-23 -0.586293)
(3.09693 -7.90809e-20 -0.555887)
(2.93566 0 -0.52678)
(2.77258 -7.69975e-20 -0.497094)
(2.6168 0 -0.468891)
(2.45817 -1.4911e-19 -0.439907)
(2.30782 1.46384e-19 -0.412631)
(2.15355 -1.43509e-19 -0.384359)
(2.00879 -1.406e-19 -0.358064)
(1.85897 0 -0.33055)
(1.72016 1.34299e-19 -0.30532)
(1.57505 0 -0.278638)
(1.44273 -1.27722e-19 -0.254587)
(1.30275 -1.24268e-19 -0.228835)
(1.17767 2.41743e-19 -0.206106)
(1.0433 0 -0.181397)
(0.926359 -4.55437e-19 -0.160145)
(0.798036 0 -0.136579)
(0.690228 2.13567e-19 -0.116955)
(0.568052 0 -0.0945662)
(0.470408 1.99463e-19 -0.0767316)
(0.354118 0 -0.055529)
(0.268276 3.71082e-19 -0.0397793)
(0.156909 -3.57421e-19 -0.019538)
(0.0836814 3.43888e-19 -0.00567645)
(-0.0292414 3.30599e-19 0.0151332)
(-0.0923548 0 0.0276723)
(-0.21458 -6.09228e-19 0.0501822)
(-0.264857 5.83972e-19 0.060767)
(-0.403346 0 0.0853159)
(-0.421432 2.68306e-19 0.0903694)
(-0.588591 0 0.118273)
(-0.532483 0 0.107317)
(-0.712321 -4.73992e-19 0.146458)
(-0.739881 0 0.162682)
(-1.03906 0 0.173813)
(-0.274023 4.26844e-19 0.0164221)
(-0.659288 8.05276e-19 0.188351)
(-1.5271 3.65433e-19 0.423479)
(-2.74386 0 0.554604)
(-1.52543 0 0.187555)
(-0.55183 0 -0.0442697)
(1.22477 0 -0.346244)
(1.54709 7.00911e-19 -0.350207)
(2.22631 6.58725e-19 -0.436341)
(1.75491 0 -0.326434)
(2.138 0 -0.400495)
(1.69011 0 -0.346975)
(2.8142 0 -0.584809)
(32.6539 4.22741e-21 0.379082)
(32.8862 0 0.395768)
(33.1422 4.94446e-21 0.355829)
(33.4074 0 0.243215)
(33.6507 6.04423e-21 0.058458)
(33.841 0 -0.183753)
(33.955 -6.33624e-21 -0.464282)
(33.9781 1.16267e-20 -0.765191)
(33.9008 2.37358e-20 -1.07132)
(33.7187 7.27893e-22 -1.37068)
(33.4312 0 -1.65427)
(33.0418 0 -1.91588)
(32.557 0 -2.15165)
(31.986 0 -2.3595)
(31.3398 0 -2.53869)
(30.6304 0 -2.68949)
(29.8701 1.48245e-20 -2.8129)
(29.0711 -1.37452e-20 -2.91052)
(28.2451 1.29362e-20 -2.98433)
(27.4024 0 -3.03652)
(26.5523 0 -3.06943)
(25.7024 9.9007e-21 -3.08538)
(24.8593 9.06719e-21 -3.0866)
(24.0282 8.28405e-21 -3.0752)
(23.213 0 -3.0531)
(22.4168 -1.38189e-20 -3.02204)
(21.6417 -2.49546e-20 -2.98355)
(20.8893 1.12406e-20 -2.93899)
(20.1605 0 -2.88951)
(19.4557 0 -2.83612)
(18.775 0 -2.77968)
(18.1183 7.20956e-21 -2.72093)
(17.4852 0 -2.66047)
(16.8752 0 -2.59883)
(16.2876 9.74855e-21 -2.53645)
(15.7218 8.42559e-21 -2.47368)
(15.1769 0 -2.41083)
(14.6522 6.0338e-21 -2.34816)
(14.1469 -9.9578e-21 -2.28585)
(13.66 -4.00346e-21 -2.22408)
(13.1909 3.10384e-21 -2.16298)
(12.7387 0 -2.10266)
(12.3026 0 -2.04319)
(11.8819 0 -1.98466)
(11.4758 3.66652e-22 -1.92709)
(11.0836 0 -1.87053)
(10.7046 1.87959e-21 -1.81498)
(10.3383 2.83929e-21 -1.76049)
(9.98388 0 -1.70699)
(9.6409 -4.53205e-21 -1.65458)
(9.30852 0 -1.60313)
(8.98656 0 -1.55275)
(8.67404 -1.29448e-20 -1.50328)
(8.371 2.10958e-23 -1.45487)
(8.07631 1.49022e-20 -1.4073)
(7.79027 0 -1.36075)
(7.51154 0 -1.31496)
(7.24077 -1.70546e-20 -1.27018)
(6.9763 0 -1.22604)
(6.71921 3.60468e-20 -1.18291)
(6.46745 0 -1.1403)
(6.22263 0 -1.0987)
(5.98216 7.56419e-20 -1.05749)
(5.74832 7.63285e-20 -1.01731)
(5.51786 3.8378e-20 -0.977375)
(5.29389 0 -0.938502)
(5.07227 0 -0.899723)
(4.85719 3.84727e-20 -0.862071)
(4.6434 7.66518e-20 -0.824334)
(4.43636 0 -0.787823)
(4.22952 7.56682e-20 -0.751031)
(4.02985 -7.49683e-20 -0.715604)
(3.82922 7.41331e-20 -0.679681)
(3.63642 -7.31821e-20 -0.645301)
(3.44145 7.21675e-20 -0.610196)
(3.2552 0 -0.576857)
(3.06552 0 -0.54255)