/*--------------------------------*- C++ -*----------------------------------*\
| =========                 |                                                 |
| \\      /  F ield         | OpenFOAM: The Open Source CFD Toolbox           |
|  \\    /   O peration     | Version:  2412                                  |
|   \\  /    A nd           | Website:  www.openfoam.com                      |
|    \\/     M anipulation  |                                                 |
\*---------------------------------------------------------------------------*/
FoamFile
{
    version     2.0;
    format      ascii;
    arch        "LSB;label=32;scalar=64";
    class       volVectorField;
    location    "0.7";
    object      ddtCorrDdt0(U);
}
// * * * * * * * * * * * * * * * * * * * * * * * * * * * * * * * * * * * * * //

dimensions      [0 1 -2 0 0 0 0];

internalField   nonuniform List<vector> 
12600
(
(-1.6622 0 -2.74717)
(-3.55241 9.93922e-18 0.420544)
(0.320691 1.04224e-17 1.05133)
(0.241337 0 0.637241)
(-0.36421 -1.27921e-19 0.267718)
(-0.559718 0 0.175261)
(-0.381494 -5.89468e-18 0.225511)
(-0.288128 0 0.132938)
(-0.271134 0 0.00934596)
(-0.0566609 0 0.0955923)
(0.288782 0 0.337128)
(0.599282 -1.53664e-17 0.39716)
(0.713854 -8.75048e-18 0.177027)
(0.347869 0 -0.32223)
(-0.0644313 -5.66915e-18 -0.621592)
(0.248875 0 -0.311638)
(1.27053 -1.39698e-18 0.221563)
(1.78996 0 -0.0654379)
(0.455073 -2.40296e-17 -1.53679)
(-1.27962 0 -2.37441)
(-4.54594 0 0.0713295)
(7.04608 0 7.47363)
(18.432 4.4439e-16 -0.595929)
(-21.544 3.09715e-17 -16.536)
(-3.9998 2.31223e-18 16.2604)
(19.0782 -7.64234e-16 -8.71766)
(-5.38067 0 -25.5193)
(-13.7001 0 -7.67869)
(-11.1891 0 -3.39742)
(-3.54344 -1.92322e-16 -0.715305)
(5.63598 -1.70017e-16 3.46072)
(2.57695 0 1.10285)
(-2.68 0 -1.3482)
(-2.4266 1.92953e-17 -0.605179)
(-0.00601477 -3.05575e-18 0.820607)
(0.212297 0 0.798815)
(-1.00983 0 0.213707)
(-1.3206 -1.56513e-18 0.188365)
(-0.662193 0 0.52687)
(-0.235798 1.30226e-18 0.610271)
(-0.383482 3.96163e-17 0.39835)
(-0.554646 5.04771e-17 0.222589)
(-0.401132 0 0.212186)
(-0.146744 4.81928e-17 0.221932)
(-0.0453434 4.23513e-17 0.150575)
(-0.0545235 -7.27073e-17 0.0526272)
(-0.0278115 5.70784e-17 0.00576698)
(0.0540578 0 0.011058)
(0.106147 -3.53294e-17 0.0215776)
(0.0823769 2.6803e-17 0.0214979)
(0.0197301 0 0.0335612)
(-0.0430791 -2.98113e-19 0.070753)
(-0.123372 -9.89373e-18 0.11929)
(-0.260951 0 0.15898)
(-0.452758 5.52921e-17 0.19771)
(-0.643445 0 0.262975)
(-0.774506 0 0.36893)
(-0.841217 -1.31948e-18 0.493821)
(-0.85904 -9.28191e-19 0.599113)
(-0.822689 -5.99876e-17 0.639893)
(-0.669913 5.17005e-17 0.59631)
(-0.395053 -7.65693e-17 0.474143)
(-0.0393663 0 0.23922)
(0.39786 1.21016e-17 -0.253688)
(0.971286 5.88172e-17 -0.919687)
(1.65728 -1.57942e-16 -1.6019)
(2.63097 7.93896e-17 -1.86728)
(3.52225 0 -2.1747)
(4.41733 0 -2.40824)
(5.19079 0 -2.74357)
(5.83341 0 -2.89817)
(5.79119 0 -3.02955)
(5.02882 -6.57716e-17 -2.69289)
(3.68905 8.15738e-17 -1.80154)
(2.13197 0 -0.714251)
(0.42334 0 0.69084)
(-1.97255 -5.0029e-17 1.53829)
(-5.10183 6.64488e-18 1.33991)
(-5.48808 6.64445e-16 2.26983)
(-3.15489 0 1.79396)
(-1.1435 0 1.31874)
(-2.88109 0 0.894786)
(-4.19742 5.43829e-18 0.148089)
(-3.06709 0 4.8738)
(-16.716 0 11.9708)
(-28.7227 -1.95817e-16 13.4638)
(6.69807 4.31277e-18 -2.81136)
(79.8425 0 -38.5113)
(-115.891 0 63.6107)
(-3.99644 -7.73239e-15 0.703343)
(33.7125 -2.42258e-17 -15.7914)
(-20.5579 3.22267e-15 9.29573)
(7.64412 -2.55989e-16 -10.3314)
(-9.35388 -2.64267e-18 6.22591)
(-0.433091 -2.12102e-18 1.938)
(-1.71922 -9.03935e-16 1.06764)
(-3.10095 0 1.21485)
(9.23577 0 -5.60968)
(20.2374 0 -11.9022)
(26.3346 -2.86887e-17 -15.1136)
(24.7595 -4.21314e-16 -13.5171)
(16.3821 -1.26574e-16 -9.01513)
(3.06201 5.06769e-16 -2.11804)
(-3.738 0 2.49757)
(-13.4632 0 8.17545)
(-22.563 0 12.9975)
(-14.4439 1.45649e-15 8.27583)
(-6.66798 0 3.8454)
(-5.20221 4.02861e-16 2.77042)
(-3.21801 0 1.62553)
(-3.37477 0 1.96388)
(-1.68197 -8.43555e-17 1.03864)
(-0.169671 0 -0.183878)
(2.01425 0 -1.26996)
(5.67397 0 -3.11029)
(2.85125 -1.88521e-16 -1.45754)
(-1.82491 0 1.22107)
(-2.33968 3.60242e-16 1.34751)
(-1.57655 0 0.852599)
(-0.637231 -4.6206e-20 0.336849)
(-6.74307 -1.98963e-18 -4.83424)
(-5.43375 -7.20323e-18 0.546219)
(-2.73807 -7.90765e-19 2.15257)
(-2.47269 0 1.67779)
(-2.50737 -6.58518e-18 1.00471)
(-2.13831 6.48842e-18 0.720354)
(-1.61656 6.14877e-18 0.793666)
(-1.36271 -8.88696e-18 0.824818)
(-1.12626 0 0.852698)
(-0.732979 0 0.952614)
(-0.346711 0 1.1946)
(-0.124206 0 1.20477)
(-0.237216 0 0.635114)
(-0.741059 0 -0.429419)
(-0.760645 2.97683e-18 -0.981352)
(0.219132 0 -0.406116)
(1.34259 -8.30327e-18 0.398226)
(0.907095 0 -0.584644)
(-1.3488 4.56085e-17 -3.51759)
(-1.68607 -2.36073e-17 -4.40795)
(0.14537 0 2.34189)
(12.2844 1.41122e-16 16.251)
(9.42008 -1.95583e-16 -5.60525)
(-27.905 -6.1048e-17 -36.9024)
(10.0957 3.59832e-16 36.7454)
(-2.68454 0 -27.7767)
(-22.0149 1.57587e-16 -56.3413)
(-9.95914 0 -11.9932)
(-9.10127 0 -3.42026)
(-0.837726 0 0.425581)
(7.44361 8.19861e-17 5.02869)
(1.6931 0 0.735641)
(-3.28932 0 -2.16817)
(-1.92534 0 -0.692371)
(0.517766 0 1.22942)
(0.143642 0 1.04596)
(-1.23714 0 0.365013)
(-1.38186 1.61115e-18 0.482721)
(-0.689923 0 0.953931)
(-0.426528 -5.11933e-17 0.993682)
(-0.706412 -8.15284e-17 0.676116)
(-0.881486 -5.03348e-17 0.463986)
(-0.691977 0 0.475386)
(-0.445837 0 0.487317)
(-0.375026 -8.55441e-17 0.385901)
(-0.399223 7.42396e-17 0.260483)
(-0.374883 -5.90726e-17 0.210416)
(-0.304922 0 0.230607)
(-0.294399 3.86848e-17 0.254512)
(-0.385304 0 0.266936)
(-0.537883 0 0.304851)
(-0.723578 1.00659e-17 0.387515)
(-0.969391 0 0.50164)
(-1.32406 0 0.622288)
(-1.77557 -5.58637e-17 0.772117)
(-2.2401 0 1.01787)
(-2.65452 0 1.35675)
(-3.02302 -3.47098e-18 1.70605)
(-3.30497 -7.17284e-17 1.98491)
(-3.4197 1.0878e-18 2.11099)
(-3.17106 0 1.99487)
(-2.49708 7.52116e-17 1.59507)
(-1.3993 3.46297e-17 0.932875)
(0.231508 0 -0.352945)
(2.49546 -1.16083e-16 -2.1194)
(5.18144 1.25674e-18 -4.07527)
(8.26322 0 -5.63386)
(11.231 6.4268e-17 -7.01001)
(13.9881 0 -8.16662)
(16.2977 0 -9.35013)
(17.9372 0 -10.0315)
(18.017 0 -10.1559)
(15.3816 1.28525e-16 -8.79433)
(10.829 -7.80285e-17 -5.86014)
(5.38608 0 -2.18274)
(-0.929358 0 1.78083)
(-7.33547 -5.07815e-17 4.81603)
(-13.4259 1.02807e-17 5.64641)
(-14.2397 1.48734e-18 7.38644)
(-9.55621 0 5.41637)
(-4.62944 0 3.40756)
(-4.6581 0 2.16308)
(-4.22166 9.88019e-18 0.233151)
(-10.9767 -3.65411e-16 11.9693)
(-55.7412 -1.67525e-15 36.3734)
(-75.0476 1.89204e-16 40.1615)
(4.74017 1.98611e-17 -7.05705)
(235.407 1.69112e-15 -123.97)
(-356.175 0 207.415)
(-9.83459 7.43207e-15 -2.21074)
(93.3499 0 -50.4262)
(-52.6039 -3.08996e-15 29.3097)
(31.9008 0 -27.1826)
(-34.1158 -3.12213e-15 21.3876)
(-6.86486 -4.21961e-16 5.24297)
(-7.47189 0 4.34626)
(-6.95454 0 2.52672)
(32.6746 -1.04018e-15 -19.8568)
(66.7693 -7.70619e-18 -39.4865)
(80.5083 2.50158e-17 -47.0095)
(71.0324 4.00139e-16 -40.5171)
(44.6016 1.20105e-16 -25.0108)
(4.90855 0 -3.07254)
(-13.8238 8.23969e-16 8.79582)
(-40.2327 0 24.5505)
(-69.2405 0 40.3057)
(-45.0403 -1.3861e-15 25.6531)
(-20.2919 0 11.5069)
(-16.2032 -2.07484e-18 8.98593)
(-9.81828 7.58004e-17 5.40098)
(-10.9653 0 6.32538)
(-5.4604 0 3.15191)
(0.87102 0 -0.951455)
(7.77776 1.02587e-16 -4.71969)
(16.9884 -2.87214e-16 -9.72117)
(6.72727 1.77226e-16 -3.61833)
(-6.48183 0 4.05245)
(-7.01603 -3.38358e-16 4.06857)
(-4.58916 0 2.5737)
(-1.86174 3.49974e-16 1.03186)
(-6.09298 5.25432e-18 -1.90988)
(-5.6547 -4.4765e-18 0.883517)
(-5.35905 -1.80026e-17 1.93584)
(-5.16281 0 2.00708)
(-4.6494 -7.47523e-18 1.73332)
(-3.76603 1.79492e-18 1.47481)
(-2.95206 0 1.43701)
(-2.50692 8.43499e-18 1.59542)
(-2.16179 0 1.87707)
(-1.78614 6.67443e-18 1.9593)
(-1.44962 0 1.93133)
(-1.29306 0 1.80783)
(-1.48316 0 1.19151)
(-1.70398 0 0.243191)
(-1.13615 -2.77485e-19 -0.165705)
(0.115449 0 0.289367)
(0.742018 0 0.694206)
(-0.519391 0 -0.775091)
(-2.4517 -1.95436e-17 -3.6881)
(-0.164107 1.38949e-18 -3.60528)
(5.18652 0 5.31386)
(9.77925 -6.34322e-17 16.2965)
(-3.01758 0 -10.8202)
(-21.1723 2.001e-16 -38.1257)
(6.42791 0 29.2115)
(-18.3881 0 -29.0179)
(-12.3367 -1.49464e-16 -46.0459)
(2.77327 0 -4.29527)
(-4.77738 0 1.56746)
(0.930697 2.24261e-17 2.79164)
(5.26608 0 1.816)
(0.0841994 0 -1.18315)
(-2.71181 0 -1.38253)
(-1.23003 0 -0.0608145)
(0.334319 1.13055e-17 0.677163)
(-0.272157 0 0.295789)
(-1.25914 0 0.190171)
(-1.25159 4.76835e-18 0.514252)
(-0.742298 0 0.762297)
(-0.622456 5.01515e-17 0.664583)
(-0.851449 1.68515e-18 0.473889)
(-0.939053 4.76544e-17 0.427461)
(-0.753237 0 0.486989)
(-0.553777 0 0.509045)
(-0.493246 3.99853e-17 0.479062)
(-0.504652 0 0.459729)
(-0.49402 5.588e-17 0.481586)
(-0.477109 0 0.52827)
(-0.542107 3.91522e-18 0.571077)
(-0.71924 0 0.615379)
(-0.980559 0 0.690251)
(-1.31296 0 0.807582)
(-1.74138 9.74165e-18 0.971339)
(-2.30361 0 1.1843)
(-2.98022 0 1.47597)
(-3.68986 0 1.9023)
(-4.38109 0 2.42056)
(-5.043 -1.32145e-16 2.91642)
(-5.5621 0 3.29537)
(-5.77743 1.45597e-18 3.46391)
(-5.391 0 3.24906)
(-4.29451 -3.50014e-17 2.57039)
(-2.44106 -3.26505e-17 1.50707)
(0.438386 0 -0.368256)
(4.42067 1.06934e-16 -2.94061)
(9.02322 7.2591e-17 -5.92614)
(13.8696 0 -9.00153)
(18.596 -6.05243e-17 -11.6766)
(22.8793 0 -13.8645)
(26.4052 0 -15.7501)
(28.6483 0 -16.8307)
(28.4992 0 -16.5018)
(23.9705 -9.56069e-19 -13.7915)
(16.3459 7.33796e-17 -8.8936)
(7.09332 0 -2.83164)
(-3.43477 0 3.18021)
(-13.1033 -2.11768e-18 8.21103)
(-20.8735 -1.43533e-16 10.8172)
(-22.1595 -3.06262e-16 11.9497)
(-14.8439 0 8.03689)
(-6.95345 0 4.21419)
(-5.29865 0 2.18941)
(-2.44097 -2.33441e-15 -0.424994)
(-17.8557 3.53818e-17 13.8956)
(-93.8187 1.57153e-15 58.908)
(-115.715 0 60.9895)
(-20.591 -2.95942e-15 -2.79993)
(375.698 -1.58542e-15 -199.203)
(-580.957 0 343.899)
(-16.8663 0 -14.0237)
(149.179 -1.63634e-17 -81.0458)
(-75.8538 0 43.3052)
(55.6976 5.0176e-16 -38.0972)
(-58.183 1.63471e-17 37.2471)
(-11.7756 3.99593e-16 6.74817)
(-12.9085 8.03084e-16 7.8825)
(-7.16038 0 2.55385)
(59.4579 9.7344e-16 -37.3428)
(114.511 7.21069e-18 -67.7559)
(129.59 -2.46687e-17 -74.5934)
(108.864 0 -60.4894)
(64.8265 1.30382e-16 -34.6293)
(2.49548 0 0.967705)
(-24.3719 -7.70478e-16 16.0842)
(-63.0903 -2.85546e-17 38.6172)
(-111.862 0 64.4704)
(-73.3445 1.29567e-15 40.4451)
(-31.6688 0 17.1917)
(-26.5416 -7.03965e-16 14.7549)
(-16.1459 -7.08331e-17 9.00725)
(-17.8863 0 10.2449)
(-8.70346 0 4.69861)
(3.05116 0 -2.49227)
(14.385 1.07954e-18 -8.94037)
(27.011 2.6828e-16 -15.3892)
(8.75108 -1.59304e-16 -4.16965)
(-11.2444 0 6.98143)
(-11.2273 -3.14306e-16 6.36762)
(-7.32969 0 3.99969)
(-2.97866 2.70868e-19 1.60087)
(-4.98698 -3.19e-18 0.0590049)
(-5.82344 2.52882e-19 0.804726)
(-6.52827 8.01069e-18 1.55308)
(-6.65782 -6.7769e-18 2.01984)
(-6.19024 -9.00222e-18 2.20305)
(-5.27839 -1.66466e-17 2.14622)
(-4.50094 0 2.01354)
(-4.07047 0 2.05686)
(-3.69755 0 2.28789)
(-3.19791 -6.32221e-18 2.44148)
(-2.72665 0 2.40984)
(-2.53368 0 2.22732)
(-2.63205 0 1.73816)
(-2.47592 0 1.10238)
(-1.44644 0 0.82726)
(-0.0635769 -1.05755e-17 1.1051)
(0.168992 1.05033e-17 1.37282)
(-1.38236 0 0.353594)
(-2.51044 0 -1.9175)
(1.71268 1.99019e-17 -2.48822)
(6.05692 -1.75669e-17 1.95949)
(2.75153 -6.67281e-17 10.036)
(-9.53602 -2.57127e-17 -6.76388)
(-9.68557 -1.89453e-16 -25.4733)
(-1.64179 -4.86161e-17 11.0364)
(-1.16577 3.91848e-16 14.0719)
(12.9103 0 -6.60125)
(11.7795 1.01324e-16 3.45701)
(-5.10923 0 0.588992)
(0.572747 -2.12256e-17 3.14749)
(3.25657 0 -0.283295)
(-0.606549 0 -1.85245)
(-2.38403 0 -0.995141)
(-1.0683 2.13256e-18 0.0613967)
(0.112431 -1.06944e-17 0.421047)
(-0.557893 0 -0.0213297)
(-1.37123 0 0.00349867)
(-1.30369 -4.50915e-18 0.383374)
(-0.847172 0 0.622617)
(-0.761349 -1.23757e-19 0.538277)
(-0.958231 3.49943e-17 0.404167)
(-1.00727 0 0.415672)
(-0.820254 0 0.51213)
(-0.638704 0 0.571076)
(-0.588219 0 0.59384)
(-0.606832 6.71713e-17 0.636478)
(-0.621153 0 0.710319)
(-0.655963 -5.24759e-17 0.788499)
(-0.790479 -3.82326e-17 0.860944)
(-1.04955 0 0.946626)
(-1.41372 0 1.07206)
(-1.8789 0 1.24754)
(-2.47221 -9.19081e-18 1.48246)
(-3.22019 1.24613e-17 1.80325)
(-4.09571 2.89186e-17 2.24442)
(-5.03878 0 2.81287)
(-5.99017 4.92847e-17 3.44647)
(-6.88976 1.14834e-16 4.04844)
(-7.56839 0 4.49608)
(-7.81538 1.00575e-16 4.64697)
(-7.24141 0 4.26154)
(-5.69887 3.13213e-17 3.23704)
(-3.09754 3.00099e-17 1.70615)
(0.918935 0 -0.877266)
(6.43777 -4.9672e-17 -4.35032)
(12.7764 -6.53285e-17 -8.3442)
(19.4103 0 -12.4695)
(25.7113 0 -16.2272)
(31.2928 0 -19.1706)
(35.7019 8.33941e-17 -21.4817)
(38.2055 6.64078e-17 -22.5864)
(37.4039 0 -21.5609)
(30.8927 -5.54616e-17 -17.3872)
(20.3461 -6.4899e-17 -10.5856)
(7.47838 0 -2.55063)
(-6.43309 0 5.49258)
(-18.7964 4.67954e-17 11.9804)
(-27.8587 -1.6763e-18 15.6068)
(-29.1129 0 15.7951)
(-18.8429 0 9.83937)
(-8.02064 0 4.40253)
(-4.95406 0 1.46982)
(0.645447 -8.10293e-18 -1.78733)
(-18.8001 2.88295e-16 20.0706)
(-129.73 0 82.0037)
(-149.104 0 78.7718)
(-77.239 0 14.7695)
(494.53 -1.55032e-15 -256.042)
(-773.282 0 466.73)
(-22.8506 6.71871e-15 -33.2067)
(200.9 1.53233e-17 -108.386)
(-88.631 -2.75622e-15 52.4924)
(75.4147 -4.69723e-16 -48.1757)
(-80.7408 2.67684e-15 52.682)
(-15.0513 -3.73967e-16 7.06636)
(-17.511 -7.51471e-16 10.5836)
(-4.68647 0 -1.57198)
(89.4956 0 -57.465)
(161.76 3.26231e-18 -96.7184)
(171.305 1.2485e-17 -98.5155)
(136.21 -3.29609e-16 -74.5994)
(75.7043 1.38012e-17 -38.7778)
(-5.07226 0 7.32805)
(-34.8437 0 23.6146)
(-81.8372 2.66905e-17 51.6351)
(-149.424 0 86.482)
(-98.4634 -1.22614e-15 53.1889)
(-40.3362 0 21.2126)
(-36.1152 3.29987e-18 19.9733)
(-22.3324 0 12.4441)
(-24.0802 -1.13303e-16 13.6894)
(-11.2678 -6.29844e-17 5.7017)
(6.28093 -9.56697e-17 -4.74278)
(21.5973 1.09657e-18 -13.5477)
(35.3903 0 -20.1243)
(8.965 1.4877e-16 -3.64902)
(-15.7242 3.12606e-16 9.92936)
(-14.8541 2.93489e-16 8.37322)
(-9.76223 0 5.25732)
(-3.97325 3.46051e-19 2.08639)
(-4.7304 0 0.476677)
(-5.65898 4.15432e-19 0.696487)
(-6.47514 0 1.34806)
(-6.92545 6.40286e-18 1.93329)
(-6.82747 1.51875e-17 2.35127)
(-6.31657 8.61648e-18 2.46515)
(-5.8496 0 2.39711)
(-5.545 0 2.49953)
(-5.15189 -6.43716e-18 2.79317)
(-4.51356 -4.72508e-18 3.01882)
(-3.92117 3.86015e-18 2.98112)
(-3.7181 8.1851e-18 2.6964)
(-3.73903 1.02664e-17 2.23661)
(-3.30075 0 1.79593)
(-1.9397 0 1.62338)
(-0.447501 2.29631e-17 1.72085)
(-0.333399 2.45681e-18 1.89292)
(-1.78071 0 1.64856)
(-2.38679 5.61351e-18 0.50603)
(1.62437 3.14179e-17 -1.02364)
(3.63782 1.6603e-17 -3.69474)
(-2.46847 0 1.5441)
(-8.62231 2.43099e-17 2.15651)
(3.3399 5.79811e-17 -3.93277)
(4.79558 4.59555e-17 4.05743)
(17.1187 -1.43439e-16 42.7461)
(20.8503 0 19.228)
(4.89195 1.22007e-16 -3.19575)
(-9.7323 0 -6.09893)
(0.422693 -4.27597e-17 2.99764)
(2.02272 0 -0.861642)
(-0.921014 0 -2.10904)
(-2.16901 0 -0.812315)
(-1.03588 -2.01421e-18 0.116502)
(-0.13314 0 0.265252)
(-0.831471 0 -0.207923)
(-1.5324 0 -0.169275)
(-1.43426 0 0.221471)
(-1.01644 1.64488e-17 0.481293)
(-0.949983 -4.4224e-17 0.437276)
(-1.11666 0 0.356812)
(-1.13123 -3.29988e-17 0.422506)
(-0.941785 0 0.56158)
(-0.77858 0 0.657492)
(-0.746448 0 0.718464)
(-0.783828 1.15564e-18 0.804101)
(-0.830706 0 0.920223)
(-0.914882 4.94795e-17 1.03763)
(-1.11068 0 1.15336)
(-1.44332 0 1.29177)
(-1.90009 2.3193e-17 1.4797)
(-2.48399 0 1.72434)
(-3.22334 0 2.03725)
(-4.13568 -2.8763e-18 2.45874)
(-5.18622 -2.72378e-17 3.02888)
(-6.32776 0 3.71846)
(-7.48691 -7.90448e-18 4.44398)
(-8.55749 -9.74739e-17 5.1157)
(-9.32742 0 5.57877)
(-9.54187 -4.64829e-17 5.65056)
(-8.73836 0 5.036)
(-6.74741 -2.94655e-17 3.6032)
(-3.41822 -2.82267e-17 1.57169)
(1.6435 0 -1.74071)
(8.56083 4.30215e-17 -6.07955)
(16.4879 1.82172e-18 -10.9582)
(24.7423 0 -15.9542)
(32.4192 0 -20.5687)
(39.058 0 -23.9708)
(43.9859 -1.58788e-16 -26.4593)
(46.3738 1.05356e-18 -27.2901)
(44.6084 0 -25.298)
(36.0857 4.94444e-17 -19.6291)
(22.8556 1.19232e-16 -10.9813)
(6.82305 0 -1.24377)
(-9.81581 0 8.40289)
(-24.2801 0 15.8143)
(-34.2165 -5.78465e-19 19.7363)
(-34.9109 0 18.8278)
(-21.6264 0 10.6906)
(-8.21382 0 3.90222)
(-3.94297 0 0.186341)
(5.10011 1.03707e-15 -3.83327)
(-20.55 1.71731e-16 19.7991)
(-164.759 0 105.191)
(-176.659 0 93.988)
(-172.086 0 49.5685)
(584.384 5.73018e-18 -281.048)
(-912.312 0 562.235)
(-24.3552 -6.28957e-15 -62.6352)
(249.198 0 -133.143)
(-90.1029 2.57946e-15 57.8283)
(91.408 0 -56.1624)
(-100.883 -1.24255e-15 67.1977)
(-17.3969 0 6.18662)
(-20.6239 0 12.2111)
(2.8268 0 -6.9666)
(122.586 0 -80.1713)
(207.358 -3.05032e-18 -125.03)
(204.83 0 -116.724)
(153.299 3.08131e-16 -81.5604)
(77.9599 -1.26855e-16 -36.7796)
(-16.2955 0 16.5691)
(-44.7216 0 30.931)
(-97.7931 0 63.1441)
(-182.162 0 105.377)
(-120.315 -8.941e-18 63.1517)
(-46.4814 0 23.2618)
(-44.8373 6.02105e-16 24.5395)
(-28.4466 0 15.7418)
(-29.6617 2.11746e-16 16.6245)
(-13.1468 5.88258e-17 6.05509)
(10.3179 8.93473e-17 -7.76298)
(28.9712 -8.55517e-17 -18.3808)
(42.1683 0 -23.6572)
(7.90333 0 -1.93766)
(-19.7381 -5.81233e-16 12.7077)
(-17.9819 2.73454e-16 9.97663)
(-11.9552 1.72382e-16 6.28288)
(-4.86857 -1.43048e-16 2.47577)
(-4.63996 0 0.579308)
(-5.22655 6.12122e-18 0.767718)
(-5.91657 0 1.26676)
(-6.44595 0 1.84583)
(-6.57906 0 2.38602)
(-6.49392 0 2.63148)
(-6.45469 0 2.66693)
(-6.42903 8.33867e-18 2.88739)
(-6.14161 6.07397e-18 3.3585)
(-5.50482 9.61303e-18 3.72611)
(-4.94639 -8.21549e-18 3.65983)
(-4.83493 -7.72552e-18 3.21901)
(-4.85794 -9.69053e-18 2.66443)
(-4.24446 0 2.27138)
(-2.68993 0 2.14886)
(-1.16848 -2.48025e-17 2.09355)
(-1.10435 -2.32392e-17 2.04946)
(-2.46726 0 2.08308)
(-2.85793 -5.29926e-18 1.8047)
(0.459476 -2.96567e-17 0.600117)
(2.27276 0 -4.24992)
(-3.30959 -1.93532e-17 -2.95199)
(-4.69674 0 6.41685)
(10.7874 2.50769e-17 10.8237)
(8.10177 -9.67565e-17 1.36162)
(9.24794 -1.45648e-16 23.5677)
(9.49821 0 14.7689)
(-6.33624 -2.05455e-16 -12.9641)
(-7.91076 2.28421e-16 -6.74897)
(1.61712 4.43108e-17 2.97749)
(1.59732 -7.59403e-17 0.109208)
(-1.06654 0 -2.00415)
(-1.96811 -6.74005e-19 -0.690767)
(-0.982064 0 0.298606)
(-0.403789 0 0.171022)
(-1.09668 0 -0.304283)
(-1.69769 0 -0.278872)
(-1.57601 0 0.106519)
(-1.19847 9.60861e-19 0.387607)
(-1.15395 2.06317e-17 0.38681)
(-1.29726 0 0.354056)
(-1.28596 5.87723e-17 0.466323)
(-1.10442 0 0.639694)
(-0.971234 0 0.760534)
(-0.970457 0 0.84275)
(-1.0382 -6.07629e-17 0.954513)
(-1.12427 0 1.10369)
(-1.25771 0 1.26188)
(-1.50944 0 1.4289)
(-1.90684 0 1.63053)
(-2.44231 -4.75898e-17 1.89519)
(-3.1245 0 2.22647)
(-3.98267 0 2.63372)
(-5.03098 -8.33907e-18 3.15581)
(-6.23021 0 3.82917)
(-7.52989 0 4.61438)
(-8.83744 -6.48863e-17 5.41156)
(-10.0144 4.32045e-17 6.11465)
(-10.8139 0 6.54032)
(-10.947 0 6.47021)
(-9.89315 0 5.57264)
(-7.46777 2.66731e-17 3.68892)
(-3.4498 0 1.15512)
(2.54055 0 -2.87208)
(10.6883 -7.84119e-17 -8.02081)
(20.0045 1.09926e-16 -13.6957)
(29.6781 0 -19.3991)
(38.5007 0 -24.6821)
(45.9059 0 -28.3449)
(51.0154 7.5508e-17 -30.7371)
(52.9466 -5.95181e-17 -31.003)
(49.9891 -6.53259e-17 -27.8245)
(39.5319 -4.63845e-17 -20.6274)
(23.9402 -5.46949e-17 -10.2326)
(5.31526 6.63454e-17 0.911147)
(-13.3606 0 11.7606)
(-29.3894 0 19.4889)
(-39.6518 6.31491e-17 23.2472)
(-39.4194 0 20.9698)
(-23.2598 0 10.6506)
(-7.84679 0 2.91811)
(-2.60808 0 -1.48842)
(10.0477 0 -6.40423)
(-16.2564 -2.55106e-16 26.7788)
(-198.903 0 129.466)
(-201.774 2.16947e-16 110.261)
(-307.384 0 103.934)
(614.888 2.27467e-17 -304.584)
(-974.397 -4.08035e-15 616.275)
(-14.1995 0 -103.46)
(295.655 0 -156.187)
(-81.5656 0 58.0329)
(103.421 0 -62.5075)
(-117.679 1.1127e-15 80.473)
(-19.4935 0 4.60315)
(-21.4092 0 12.3247)
(13.5399 0 -17.752)
(157.477 0 -105.492)
(249.722 0 -151.275)
(228.547 0 -128.742)
(160.36 0 -81.9748)
(72.6805 0 -29.4413)
(-30.1035 -3.69805e-16 27.4091)
(-53.6294 0 37.9861)
(-111.53 0 74.4688)
(-209.531 0 121.679)
(-138.528 1.07852e-15 70.4203)
(-50.2174 0 23.6648)
(-52.5317 -2.79453e-16 28.5775)
(-34.5049 0 18.9212)
(-34.7825 -2.04536e-20 19.2096)
(-14.3772 0 5.74444)
(15.0247 -7.67952e-17 -11.3585)
(36.1354 0 -23.143)
(47.2909 0 -26.1206)
(5.82949 0 0.467843)
(-23.1428 2.70141e-16 15.1683)
(-20.595 -5.10271e-16 11.3175)
(-13.9128 -3.22643e-16 7.14413)
(-5.6778 -1.34346e-16 2.78463)
(-4.47569 0 0.791077)
(-4.80726 -5.64577e-18 0.933117)
(-5.33692 0 1.26811)
(-5.71239 0 1.81199)
(-5.84041 -7.19161e-18 2.40559)
(-5.95091 -8.47858e-18 2.75787)
(-6.20328 8.80804e-18 2.87304)
(-6.47867 -2.38797e-17 3.13183)
(-6.43661 0 3.73119)
(-6.00185 6.2061e-19 4.27564)
(-5.66435 4.30856e-18 4.24687)
(-5.79212 0 3.67149)
(-5.95077 0 2.97355)
(-5.31677 0 2.51928)
(-3.73596 0 2.3525)
(-2.26098 1.04383e-18 2.18444)
(-2.15581 1.04334e-18 2.01238)
(-3.32224 5.77969e-18 2.15697)
(-3.49264 -2.31439e-18 2.49053)
(-0.743598 0 2.07592)
(1.78411 2.87731e-17 -1.74769)
(-2.13887 1.8239e-17 -3.43136)
(-2.31828 0 5.20091)
(9.07682 -1.69664e-17 11.249)
(4.52051 3.65848e-17 -2.43556)
(-1.73043 -6.45251e-17 2.37598)
(-1.40053 0 3.45028)
(-7.29648 0 -10.4816)
(-2.98921 -2.1522e-16 -2.23796)
(1.70029 -3.37497e-17 2.41262)
(1.13817 1.46118e-16 1.10556)
(-1.32036 0 -1.55695)
(-1.83723 2.16597e-19 -0.615528)
(-0.887674 0 0.663904)
(-0.727713 0 0.155009)
(-1.3741 -4.81846e-18 -0.331278)
(-1.86836 0 -0.313047)
(-1.72813 8.92888e-18 0.0529278)
(-1.399 3.85996e-19 0.340006)
(-1.38132 -1.80001e-17 0.375713)
(-1.50403 0 0.387782)
(-1.47282 -2.8522e-18 0.540757)
(-1.30831 0 0.740012)
(-1.21286 0 0.878142)
(-1.24846 0 0.974778)
(-1.34863 0 1.10756)
(-1.47403 0 1.28684)
(-1.65532 -5.63094e-17 1.48438)
(-1.95906 0 1.70242)
(-2.41294 0 1.96978)
(-3.01407 2.42198e-17 2.31588)
(-3.77498 0 2.74159)
(-4.72494 6.58992e-18 3.25164)
(-5.87742 2.91578e-18 3.87386)
(-7.19086 -5.43271e-19 4.63255)
(-8.60585 0 5.48488)
(-10.0086 2.69436e-17 6.32062)
(-11.2365 3.0748e-17 7.01019)
(-12.0157 0 7.34506)
(-12.0318 0 7.08143)
(-10.7257 0 5.86431)
(-7.89907 -2.50445e-17 3.5043)
(-3.26327 0 0.477668)
(3.51209 0 -4.22018)
(12.6968 3.56648e-17 -10.103)
(23.1882 -9.91698e-17 -16.4712)
(34.0689 0 -22.7247)
(43.825 0 -28.465)
(51.7266 0 -32.1869)
(56.7051 0 -34.2313)
(57.8872 -5.75464e-17 -33.6781)
(53.5939 6.12496e-17 -29.1578)
(41.3496 0 -20.459)
(23.8029 0 -8.46491)
(3.21087 -6.2179e-17 3.72584)
(-16.9038 0 15.2732)
(-33.866 4.77885e-17 22.9739)
(-43.9683 5.99217e-17 26.1234)
(-42.6274 0 22.0937)
(-23.8907 0 9.83117)
(-7.27678 0 1.69535)
(-1.27227 0 -3.41474)
(16.5489 0 -9.56825)
(-9.07731 8.82506e-17 37.9126)
(-234.635 0 155.468)
(-230.764 -4.41395e-16 132.818)
(-476.478 0 173.614)
(623.279 7.72733e-18 -260.561)
(-940.998 -5.44082e-17 618.484)
(9.34199 0 -165.096)
(342.072 5.90966e-17 -178.702)
(-64.4522 0 53.0422)
(112.374 0 -66.4905)
(-130.375 -2.0521e-15 91.9454)
(-22.131 0 2.68105)
(-19.8728 0 10.5299)
(27.564 0 -34.0235)
(193.885 0 -132.443)
(287.021 0 -174.368)
(241.702 0 -133.559)
(159.256 0 -76.6435)
(60.9521 0 -19.0128)
(-45.305 3.45491e-16 39.0428)
(-61.935 0 44.6408)
(-124.344 0 85.5095)
(-231.481 0 134.706)
(-153.019 -1.02173e-15 74.7891)
(-52.0017 -2.95672e-16 22.5685)
(-59.1487 2.52867e-16 31.9897)
(-40.4668 5.74494e-17 21.9621)
(-39.752 -2.11609e-19 21.5377)
(-15.0373 3.88546e-17 4.88942)
(20.168 1.39663e-16 -15.444)
(42.7453 0 -27.6233)
(50.9427 1.86548e-16 -27.4626)
(3.28638 1.04118e-16 3.49259)
(-25.8576 0 17.2614)
(-22.82 2.38023e-16 12.3547)
(-15.6802 1.50957e-16 7.82862)
(-6.41622 1.25401e-16 3.01681)
(-4.32238 0 1.08316)
(-4.50295 2.69316e-18 1.13442)
(-4.86253 0 1.35674)
(-5.02407 0 1.83452)
(-5.05272 6.77171e-18 2.39834)
(-5.15557 7.98187e-18 2.81641)
(-5.46582 -8.29054e-18 2.99278)
(-5.89236 2.24971e-17 3.1944)
(-6.07046 0 3.76939)
(-5.8909 5.80144e-18 4.45627)
(-5.85082 -1.01196e-17 4.57259)
(-6.31706 0 3.9706)
(-6.76598 9.31937e-18 3.16402)
(-6.31495 0 2.63401)
(-4.88803 9.10543e-18 2.40401)
(-3.51455 1.01656e-17 2.18495)
(-3.27595 9.26154e-18 2.0242)
(-4.10402 -5.44063e-18 2.30572)
(-4.04571 1.59224e-18 3.05202)
(-1.83076 0 3.16592)
(0.888169 -2.70854e-17 0.723014)
(-1.59959 0 -2.55229)
(-2.16068 0 2.17624)
(3.62883 -5.48021e-17 5.86284)
(-0.382786 7.418e-17 -4.82631)
(-6.48596 0 -6.20725)
(-5.1272 0 -1.19439)
(-4.82804 0 -5.07729)
(-0.322313 6.08216e-17 0.0548967)
(1.37255 2.8237e-17 1.75426)
(0.21529 -7.59149e-18 0.998408)
(-1.59744 2.30861e-17 -0.956097)
(-1.72192 6.58898e-18 -0.479191)
(-1.02387 -7.78233e-18 0.708264)
(-1.14367 -1.21666e-18 0.205423)
(-1.67889 1.53335e-18 -0.289482)
(-2.05124 0 -0.267974)
(-1.89928 -8.39769e-18 0.0627822)
(-1.62332 -1.49427e-17 0.339735)
(-1.63504 1.69266e-17 0.401984)
(-1.73781 0 0.455864)
(-1.69232 -2.18092e-17 0.641739)
(-1.55127 -2.16991e-17 0.859534)
(-1.49605 -2.38711e-17 1.01194)
(-1.56667 -2.60693e-17 1.12257)
(-1.6961 0 1.27573)
(-1.85752 0 1.48306)
(-2.08259 -2.79806e-18 1.71718)
(-2.43227 0 1.98324)
(-2.93359 0 2.31267)
(-3.58724 2.90404e-17 2.7364)
(-4.40819 -1.79767e-17 3.25361)
(-5.42402 -6.18912e-18 3.86413)
(-6.64784 -1.74101e-18 4.58086)
(-8.03694 5.73303e-18 5.41012)
(-9.52305 0 6.30273)
(-10.9726 0 7.14097)
(-12.2043 -5.38288e-17 7.77413)
(-12.9251 0 7.97346)
(-12.8056 0 7.47817)
(-11.2667 3.04978e-17 5.92218)
(-8.09114 0 3.08412)
(-2.94232 0 -0.422077)
(4.45251 7.87243e-19 -5.72322)
(14.4622 -2.81118e-17 -12.2488)
(25.9103 8.89248e-17 -19.195)
(37.779 0 -25.8579)
(48.2607 -5.41491e-17 -31.8798)
(56.4371 0 -35.4532)
(61.0244 0 -36.913)
(61.2363 1.08427e-16 -35.326)
(55.5525 0 -29.376)
(41.7508 0 -19.2401)
(22.7273 0 -5.83562)
(0.776812 0 6.98756)
(-20.2268 0 18.7499)
(-37.5312 -4.47509e-17 26.1784)
(-47.1123 9.4739e-19 28.2863)
(-44.5277 -2.31077e-16 22.2721)
(-23.7491 1.16522e-16 8.38482)
(-6.8967 0 0.472287)
(-0.228613 0 -5.56286)
(23.4383 0 -13.2805)
(-8.3262 0 40.4254)
(-271.659 0 184.319)
(-269.993 -3.94599e-17 166.628)
(-648.278 0 243.881)
(592.145 1.15717e-15 -211.881)
(-816.794 -3.82955e-17 566.363)
(62.2496 0 -221.101)
(391.848 -5.52516e-17 -200.691)
(-38.9557 0 45.6756)
(119.446 4.47655e-16 -67.0918)
(-138.259 2.9958e-17 101.334)
(-25.9652 0 0.773006)
(-15.2107 0 6.77421)
(48.1267 0 -49.758)
(230.217 0 -160.348)
(317.655 -1.56333e-17 -192.988)
(243.983 0 -130.966)
(152.914 0 -67.2487)
(46.0198 -1.60536e-16 -4.2763)
(-60.6529 0 51.0306)
(-70.2375 -5.3193e-16 51.4434)
(-136.432 -4.97541e-17 96.9132)
(-247.449 0 144.532)
(-163.809 1.91251e-15 76.3242)
(-52.2731 -6.52927e-18 20.3203)
(-64.5302 -4.67514e-16 34.8006)
(-46.2262 -5.36416e-17 24.8334)
(-44.8967 -8.60237e-17 23.8037)
(-15.3287 -3.62757e-17 3.6304)
(25.5145 -6.34473e-17 -19.8779)
(48.5445 7.12294e-17 -31.6322)
(53.291 -1.74145e-16 -27.8087)
(0.625005 -9.71923e-17 6.69894)
(-27.8543 -2.28717e-16 18.985)
(-24.7098 -2.21258e-16 13.1918)
(-17.2774 0 8.37139)
(-7.09392 0 3.17652)
(-4.2104 0 1.37928)
(-4.27583 2.98976e-18 1.3758)
(-4.48185 0 1.52482)
(-4.49297 0 1.89357)
(-4.45013 0 2.35251)
(-4.48432 0 2.77193)
(-4.69608 6.82532e-18 3.00766)
(-5.07885 -6.97425e-18 3.13965)
(-5.32589 6.10416e-18 3.56261)
(-5.27649 -1.02991e-17 4.28896)
(-5.4016 9.51286e-18 4.62813)
(-6.12612 0 4.15038)
(-6.93184 -8.76065e-18 3.30803)
(-6.86701 0 2.72315)
(-5.80037 -8.56011e-18 2.47039)
(-4.6292 -7.75743e-18 2.2731)
(-4.28093 0 2.18256)
(-4.7902 0 2.55612)
(-4.65242 5.51283e-19 3.4604)
(-3.04424 0 3.76615)
(-0.793365 0 2.18281)
(-2.20149 1.57984e-17 -1.33821)
(-3.0243 0 0.203668)
(-0.859436 0 1.86185)
(-3.16806 -2.14247e-17 -4.16193)
(-6.21465 0 -5.77485)
(-4.25034 0 -0.526796)
(-1.96465 0 -0.0331341)
(0.999025 -6.56024e-17 2.00501)
(0.714873 0 1.60991)
(-0.875065 -1.38713e-17 0.582804)
(-1.77032 -1.09807e-17 -0.186479)
(-1.80263 -5.82171e-18 -0.290701)
(-1.32831 7.31396e-18 0.619116)
(-1.5314 8.26353e-19 0.322793)
(-2.00004 2.81835e-18 -0.163388)
(-2.25483 0 -0.152065)
(-2.10064 0 0.125378)
(-1.87361 -1.35012e-17 0.385759)
(-1.9151 1.48438e-17 0.460994)
(-1.99642 0 0.552807)
(-1.94131 0 0.762739)
(-1.8261 7.67894e-19 0.994095)
(-1.80843 2.24186e-17 1.16155)
(-1.90792 2.44811e-17 1.28965)
(-2.05962 5.30858e-17 1.46524)
(-2.25066 0 1.69982)
(-2.51292 -1.59061e-18 1.96715)
(-2.90058 0 2.27576)
(-3.43896 0 2.65946)
(-4.13138 -2.72568e-17 3.15077)
(-4.99419 1.6871e-17 3.74789)
(-6.05165 0 4.44652)
(-7.31589 -9.35631e-19 5.24417)
(-8.74326 3.7321e-18 6.12687)
(-10.2584 0 7.03484)
(-11.7119 0 7.84354)
(-12.9097 4.40085e-17 8.38585)
(-13.5477 0 8.41849)
(-13.293 0 7.67014)
(-11.5631 -5.66198e-17 5.77292)
(-8.10568 0 2.4844)
(-2.57575 0 -1.47909)
(5.25067 7.11527e-19 -7.31063)
(15.863 2.63473e-17 -14.3828)
(28.0495 -4.06832e-17 -21.7935)
(40.6982 0 -28.74)
(51.7173 5.07332e-17 -34.9089)
(60.0157 0 -38.1163)
(64.0185 -6.81996e-17 -38.7876)
(63.1227 -5.10431e-17 -36.0065)
(56.0755 0 -28.6128)
(41.0367 0 -17.118)
(21.061 3.53205e-17 -2.50988)
(-1.70911 4.35012e-17 10.4966)
(-23.0878 0 22.1301)
(-40.3336 0 28.9344)
(-49.0862 -1.08043e-16 29.6814)
(-45.1808 2.1624e-16 21.6474)
(-23.1361 -2.18364e-16 6.52276)
(-7.08827 0 -0.516499)
(0.325304 0 -8.02095)
(31.1958 0 -17.4221)
(-6.09752 0 52.5472)
(-310.403 0 216.402)
(-319.678 -3.88283e-17 212.035)
(-779.774 0 287.687)
(525.896 0 -205.275)
(-612.696 -1.80768e-17 470.34)
(97.6525 0 -338.074)
(443.05 -1.84247e-16 -224.634)
(-7.19091 0 35.9363)
(124.89 -4.18363e-16 -65.3489)
(-140.776 3.09831e-17 108.343)
(-31.3477 0 -0.910126)
(-7.99703 0 -0.143794)
(70.7806 0 -71.4902)
(265.393 0 -188.145)
(340.209 -1.05859e-17 -205.992)
(236.045 -3.9674e-17 -121.246)
(145.979 -1.76217e-16 -55.9007)
(27.9742 1.4994e-16 11.715)
(-76.0088 0 62.8006)
(-79.4413 4.96766e-16 58.7217)
(-147.672 4.64627e-17 108.084)
(-257.241 0 150.667)
(-171.146 -8.94859e-16 75.2318)
(-51.4519 5.33628e-16 17.1568)
(-68.5006 2.16045e-16 36.9174)
(-51.6135 0 27.4692)
(-50.5865 7.89279e-17 26.1817)
(-15.6313 0 2.00859)
(30.8131 0 -24.5106)
(53.3619 -6.64908e-17 -35.041)
(54.5669 0 -27.3149)
(-1.63791 0 10.0047)
(-29.1983 2.13482e-16 20.3208)
(-26.3521 2.06514e-16 13.8501)
(-18.7343 1.33559e-16 8.7761)
(-7.71567 -1.10513e-16 3.26211)
(-4.10295 0 1.61887)
(-4.09142 -2.80994e-18 1.62128)
(-4.18144 -5.32695e-18 1.72576)
(-4.10699 0 1.98555)
(-4.03865 0 2.31405)
(-4.04108 0 2.66616)
(-4.12936 -6.41353e-18 2.94874)
(-4.34798 0 3.07175)
(-4.52138 -5.73446e-18 3.31053)
(-4.45938 0 3.94442)
(-4.53807 0 4.48968)
(-5.26466 8.89175e-18 4.26532)
(-6.2863 0 3.47493)
(-6.67432 6.55158e-18 2.83417)