/*--------------------------------*- C++ -*----------------------------------*\
| =========                 |                                                 |
| \\      /  F ield         | OpenFOAM: The Open Source CFD Toolbox           |
|  \\    /   O peration     | Version:  2412                                  |
|   \\  /    A nd           | Website:  www.openfoam.com                      |
|    \\/     M anipulation  |                                                 |
\*---------------------------------------------------------------------------*/
FoamFile
{
    version     2.0;
    format      ascii;
    arch        "LSB;label=32;scalar=64";
    class       volVectorField;
    location    "0.575";
    object      ddt0(U);
}
// * * * * * * * * * * * * * * * * * * * * * * * * * * * * * * * * * * * * * //

dimensions      [0 1 -2 0 0 0 0];

internalField   nonuniform List<vector> 
12600
(
(0.0594758 -2.09746e-21 -0.0272675)
(-0.0197074 -3.75261e-21 -0.00327886)
(-0.0071972 -2.79457e-21 0.00235416)
(-0.00676628 0 0.00109731)
(-0.0097209 -2.17585e-21 0.000482929)
(-0.0102309 -2.12171e-21 0.00042083)
(-0.00996644 0 0.000699257)
(-0.00918735 0 0.00131383)
(-0.00747946 8.05029e-21 0.00176496)
(-0.00462482 0 0.00189942)
(-0.000528238 -3.71673e-21 0.00172027)
(0.00460569 -3.51132e-21 0.0012988)
(0.0102497 3.27455e-21 0.000726175)
(0.0156853 0 9.61869e-05)
(0.0201813 2.68784e-21 -0.000503629)
(0.0231485 0 -0.00100322)
(0.0242354 -8.16208e-21 -0.00135773)
(0.023349 0 -0.00154624)
(0.0206113 2.73972e-21 -0.00156375)
(0.0162853 2.10769e-21 -0.00141283)
(0.0107053 -1.55258e-21 -0.00109992)
(0.00423555 4.05475e-23 -0.000636681)
(-0.00274073 0 -4.42106e-05)
(-0.00981934 1.06425e-21 0.00064385)
(-0.0165836 0 0.00138319)
(-0.0226354 0 0.00212527)
(-0.0276388 1.13204e-21 0.00282486)
(-0.0313568 0 0.00344592)
(-0.0336749 -3.85167e-23 0.00396507)
(-0.0346016 -2.9689e-21 0.00437147)
(-0.034247 -3.71866e-21 0.00466336)
(-0.032786 -4.4619e-21 0.00484313)
(-0.0304206 5.14804e-21 0.00491318)
(-0.0273502 1.14651e-20 0.00487366)
(-0.0237635 1.23588e-20 0.00472421)
(-0.0198526 -1.30601e-20 0.00446928)
(-0.0158389 0 0.00412429)
(-0.0119819 1.29767e-20 0.0037175)
(-0.00856363 0 0.00328753)
(-0.00585362 -1.16887e-20 0.00287729)
(-0.004066 0 0.00252672)
(-0.00332277 1.08422e-22 0.00226645)
(-0.00362997 0 0.00211337)
(-0.00488551 2.75201e-23 0.00207095)
(-0.00689239 -1.13275e-20 0.00212936)
(-0.0094037 9.0095e-21 0.00227108)
(-0.012141 -6.87283e-21 0.00247055)
(-0.0148537 0 0.00270345)
(-0.0173168 0 0.00294263)
(-0.0193969 -2.49116e-21 0.00317172)
(-0.0210024 -3.56279e-21 0.00337291)
(-0.0221574 -2.89139e-21 0.00354684)
(-0.022893 -1.0208e-22 0.00368952)
(-0.0233415 -3.86202e-21 0.00381974)
(-0.0235606 0 0.0039389)
(-0.0236785 6.66735e-21 0.00406747)
(-0.0236582 8.34987e-21 0.00418749)
(-0.0235616 9.69155e-21 0.00430311)
(-0.0232743 0 0.00437689)
(-0.022931 0 0.00442647)
(-0.0224849 0 0.00443323)
(-0.0222224 -2.369e-20 0.0044536)
(-0.0220935 0 0.00447557)
(-0.0224011 0 0.00455969)
(-0.0228966 4.46279e-20 0.0046532)
(-0.0238472 0 0.0048083)
(-0.0247875 0 0.00494048)
(-0.0261399 0 0.00514195)
(-0.0272933 -4.23267e-20 0.00531011)
(-0.0289757 3.70488e-20 0.0055943)
(-0.0302497 3.65538e-20 0.00581178)
(-0.032218 -2.0394e-23 0.00617407)
(-0.0333788 -2.83425e-20 0.00637735)
(-0.0354578 0 0.00676117)
(-0.0361884 2.50523e-20 0.00688779)
(-0.0383253 0 0.00730008)
(-0.0385292 0 0.00735655)
(-0.04102 0 0.0078654)
(-0.0408345 -4.18978e-23 0.00786288)
(-0.0440256 1.96244e-20 0.00850283)
(-0.0435409 4.61804e-20 0.00842991)
(-0.0476659 -1.20884e-20 0.00923114)
(-0.0468701 -4.45502e-20 0.00909003)
(-0.0518632 0 0.0100508)
(-0.0506449 0 0.00982099)
(-0.0561868 5.01371e-21 0.010882)
(-0.0547492 -1.30758e-19 0.0106112)
(-0.0602668 -5.20708e-21 0.0116852)
(-0.0588554 4.022e-20 0.0114221)
(-0.0636162 0 0.0123473)
(-0.0621092 -2.30924e-20 0.012014)
(-0.0648816 -2.60449e-20 0.0126032)
(-0.063046 4.54724e-21 0.0122262)
(-0.0695711 -8.65185e-20 0.013466)
(-0.0701417 0 0.0134806)
(-0.0844221 0 0.0161796)
(-0.0573303 0 0.0109995)
(-0.0555204 0 0.010252)
(0.0131244 0 -0.00341627)
(0.0170136 0 -0.00299874)
(0.0818423 1.47538e-19 -0.0115308)
(0.0460294 4.77301e-19 -0.00527521)
(0.0375647 6.52462e-19 -0.0126282)
(-0.23483 0 0.0389073)
(-0.40909 0 0.0753317)
(1.08266 0 -0.198538)
(0.10683 4.61286e-18 -0.0166892)
(-3.7397 2.65181e-17 0.711469)
(-0.976474 3.94609e-18 0.128077)
(5.59265 0 -1.08008)
(4.84901 -3.46407e-18 -0.874553)
(-2.45345 0 0.473397)
(-5.58223 9.21801e-18 1.07399)
(-4.3145 -1.17232e-18 0.807346)
(-2.07293 1.80821e-18 0.373797)
(-0.271237 9.99807e-19 0.0363998)
(1.10096 6.9678e-19 -0.211391)
(1.36986 7.99712e-21 -0.253644)
(0.582255 4.33005e-19 -0.101491)
(-0.371324 0 0.0756613)
(0.0273847 2.11778e-21 -0.0573821)
(-0.0068127 0 -0.0160315)
(0.000473533 2.82836e-21 0.00286621)
(0.00263368 0 0.00422925)
(-0.00559999 2.2046e-21 0.00300515)
(-0.0145309 4.49887e-21 0.00277486)
(-0.0218877 2.19059e-21 0.00362769)
(-0.0274458 0 0.00502846)
(-0.0303429 1.07131e-24 0.00600889)
(-0.0297281 3.90787e-21 0.00624841)
(-0.0254201 -3.71249e-21 0.00583318)
(-0.0180268 -3.49529e-21 0.00498301)
(-0.00874757 3.25495e-21 0.00390371)
(0.000989285 -2.98942e-21 0.00276299)
(0.00984588 -5.42538e-21 0.00169275)
(0.0167958 0 0.00077845)
(0.0212337 2.31297e-23 5.63376e-05)
(0.0229596 -3.44359e-21 -0.00046682)
(0.0220627 -2.77961e-21 -0.000784523)
(0.0187758 0 -0.00087401)
(0.013373 0 -0.00070117)
(0.00614597 -1.14623e-21 -0.000239585)
(-0.00255874 0 0.000509142)
(-0.0122937 -5.64831e-22 0.00150683)
(-0.0225121 1.09788e-21 0.00268833)
(-0.0326299 0 0.00398059)
(-0.0421133 -1.36309e-21 0.00531815)
(-0.0505508 0 0.00665096)
(-0.0576906 2.29518e-21 0.00794591)
(-0.063432 6.04378e-21 0.0091806)
(-0.0677798 7.52199e-21 0.0103326)
(-0.0707783 4.51621e-21 0.0113699)
(-0.0724575 -5.20927e-21 0.0122472)
(-0.0728054 -2.29984e-20 0.012909)
(-0.0717929 -2.47653e-20 0.013303)
(-0.069443 0 0.0133994)
(-0.0659116 0 0.0132058)
(-0.0615128 -2.34784e-22 0.0127671)
(-0.0566855 0 0.0121548)
(-0.0519139 1.18002e-20 0.011452)
(-0.0476407 0 0.0107375)
(-0.0442001 1.91177e-20 0.0100771)
(-0.0417805 0 0.0095164)
(-0.0404408 1.39379e-20 0.00908721)
(-0.0401186 0 0.00880149)
(-0.0406919 -9.07199e-21 0.00866505)
(-0.0419659 0 0.00866215)
(-0.0437609 0 0.00878067)
(-0.0458509 3.87165e-21 0.00898446)
(-0.0480975 0 0.00925803)
(-0.0503117 0 0.00955702)
(-0.052468 0 0.00988429)
(-0.0544703 3.14799e-21 0.0102081)
(-0.0564599 7.88419e-21 0.0105718)
(-0.05841 0 0.0109546)
(-0.0605338 0 0.0114168)
(-0.0626581 -8.34569e-21 0.0118905)
(-0.0648819 -9.69109e-21 0.0124068)
(-0.0668052 0 0.0128368)
(-0.0686225 0 0.0132455)
(-0.0699964 0 0.0135232)
(-0.0714667 0 0.013837)
(-0.0727546 -2.34275e-20 0.0140857)
(-0.0746041 2.22468e-20 0.0144862)
(-0.0764167 -4.4282e-20 0.0148356)
(-0.0789958 0 0.015368)
(-0.081247 0 0.0157616)
(-0.0843774 0 0.0163775)
(-0.0868686 6.47617e-23 0.0167951)
(-0.0907163 -3.66945e-20 0.017581)
(-0.0935392 -3.61713e-20 0.0180743)
(-0.098387 5.50755e-20 0.0190961)
(-0.101361 -1.01413e-22 0.0195935)
(-0.107177 -1.94481e-20 0.0208063)
(-0.109729 -2.4696e-20 0.0211677)
(-0.116471 0 0.0225823)
(-0.118183 0 0.0227529)
(-0.126399 0 0.0245159)
(-0.127259 4.90059e-20 0.0244827)
(-0.1376 0 0.0267083)
(-0.137497 0 0.0264222)
(-0.150417 1.18312e-20 0.029196)
(-0.149079 4.35556e-20 0.0286098)
(-0.164425 0 0.0319105)
(-0.161496 0 0.0309572)
(-0.178615 0 0.034641)
(-0.174716 1.2732e-19 0.0334745)
(-0.192236 6.00337e-23 0.0372605)
(-0.188098 3.91731e-20 0.0360759)
(-0.203925 1.23768e-20 0.0394286)
(-0.199025 2.25156e-20 0.0381672)
(-0.209566 -2.50579e-20 0.0403822)
(-0.204036 -8.71917e-21 0.0391871)
(-0.224935 0 0.0434357)
(-0.22521 0 0.0433124)
(-0.263028 0 0.0503767)
(-0.180178 0 0.0335813)
(-0.167946 -1.9234e-19 0.0306802)
(0.0369328 0 -0.0103528)
(0.0358514 0 -0.00724518)
(0.191556 1.40606e-19 -0.0329904)
(0.0503349 -2.27677e-19 -0.00473594)
(0.0412739 -1.24422e-18 -0.0128324)
(-0.748819 -1.21654e-19 0.14154)
(-1.09504 0 0.201032)
(2.98293 0 -0.580313)
(-0.270758 0 0.128885)
(-10.5106 -1.26327e-17 2.04803)
(-1.47253 -3.75552e-18 0.0909805)
(16.1019 0 -3.2173)
(12.4846 6.71423e-18 -2.24846)
(-8.15728 -7.77406e-18 1.77565)
(-16.151 -1.75028e-17 3.15301)
(-12.054 0 2.25332)
(-5.61402 0 1.0001)
(-0.518288 9.75319e-19 0.0376625)
(3.22676 0 -0.654653)
(3.6883 -1.28593e-18 -0.697779)
(1.36147 -4.24839e-19 -0.231734)
(-1.25165 0 0.257399)
(0.00838148 0 -0.0364791)
(-0.00613887 0 -0.0153654)
(-0.00346752 2.36099e-21 0.00347662)
(-0.00068855 0 0.00820782)
(-0.00711156 0 0.00808794)
(-0.0180983 -2.09507e-21 0.00845302)
(-0.0298804 -2.07454e-21 0.0098344)
(-0.040626 0 0.0111742)
(-0.0483854 -6.43243e-24 0.0116597)
(-0.0515215 -3.70212e-21 0.0111967)
(-0.0494745 7.00855e-21 0.0101989)
(-0.0429376 3.31171e-21 0.00910662)
(-0.0334716 -2.12298e-23 0.00816001)
(-0.0229211 2.83265e-21 0.00743275)
(-0.0129662 2.55644e-21 0.00690517)
(-0.00485451 -2.25169e-21 0.006494)
(0.000712228 3.89322e-21 0.00608331)
(0.00353256 3.26325e-21 0.00558271)
(0.00372814 0 0.00498064)
(0.00153504 0 0.00435246)
(-0.00282851 -1.6186e-21 0.0038212)
(-0.00917151 -1.20679e-21 0.00350097)
(-0.0172504 0 0.00345518)
(-0.0266854 0 0.0036903)
(-0.0369522 -1.04029e-21 0.00418403)
(-0.0474634 0 0.00491844)
(-0.0576838 2.67864e-21 0.00589325)
(-0.0672178 -1.77289e-21 0.00712034)
(-0.0758424 0 0.00861)
(-0.0834771 -2.87746e-21 0.0103503)
(-0.0901102 -3.55928e-21 0.0122887)
(-0.0957107 0 0.0143258)
(-0.10017 4.81258e-21 0.0163248)
(-0.103286 1.07983e-20 0.0181307)
(-0.104824 1.73784e-22 0.0196058)
(-0.104635 0 0.0206636)
(-0.102773 0 0.0212837)
(-0.099533 -1.21926e-20 0.0214989)
(-0.0953933 0 0.0213715)
(-0.0909014 0 0.020973)
(-0.0865607 0 0.0203687)
(-0.0827536 0 0.0196202)
(-0.079714 0 0.0187839)
(-0.0775595 0 0.017928)
(-0.0763009 0 0.0171146)
(-0.0759151 8.71954e-21 0.0164165)
(-0.0763032 -6.81959e-21 0.0158747)
(-0.0773935 0 0.0155357)
(-0.0790226 -3.66295e-21 0.015388)
(-0.0811103 0 0.0154412)
(-0.0834432 0 0.0156296)
(-0.0859983 3.39885e-21 0.0159599)
(-0.088605 0 0.0163591)
(-0.0914323 -3.79393e-21 0.0168906)
(-0.094397 5.086e-21 0.0174948)
(-0.0977953 0 0.0182769)
(-0.101358 7.88852e-21 0.0191115)
(-0.105247 0 0.020079)
(-0.108867 0 0.0209534)
(-0.112505 0 0.0218644)
(-0.115608 2.23588e-20 0.0225724)
(-0.118923 2.20747e-20 0.0233534)
(-0.121953 9.79695e-23 0.0239628)
(-0.125754 -4.19147e-20 0.0247972)
(-0.129391 1.03956e-22 0.0254711)
(-0.134072 0 0.0264579)
(-0.138183 0 0.0271549)
(-0.143577 -3.81143e-20 0.0282483)
(-0.147997 1.33073e-22 0.0289205)
(-0.154479 0 0.0302229)
(-0.159426 0 0.0309479)
(-0.16751 -2.6004e-20 0.0326346)
(-0.172801 -1.40833e-22 0.0334113)
(-0.182583 -1.13393e-22 0.0355377)
(-0.187449 0 0.036186)
(-0.198972 0 0.038758)
(-0.202749 -4.81169e-20 0.0391079)
(-0.216831 2.70491e-20 0.0423057)
(-0.219336 0 0.0422884)
(-0.236949 0 0.0463219)
(-0.237872 0 0.0458459)
(-0.25978 0 0.0508618)
(-0.258585 0 0.049787)
(-0.284682 0 0.0557482)
(-0.280719 0 0.0539548)
(-0.310211 0 0.0606908)
(-0.304377 -1.19688e-19 0.0584227)
(-0.335292 2.30458e-21 0.0654745)
(-0.328653 -3.68178e-20 0.0630818)
(-0.357578 -1.16301e-20 0.0695419)
(-0.349025 -2.13388e-20 0.0670107)
(-0.370143 2.35366e-20 0.0716316)
(-0.360843 4.05856e-21 0.0694781)
(-0.398377 0 0.077411)
(-0.396861 0 0.0767843)
(-0.454901 0 0.0866952)
(-0.315231 0 0.0572751)
(-0.292489 1.80446e-19 0.0513624)
(0.0381577 0 -0.0150228)
(0.0205614 0 -0.00613156)
(0.255784 -1.31836e-19 -0.0470133)
(-0.0076892 0 0.0119816)
(-0.0195145 5.80948e-19 0.0160855)
(-1.32201 1.14007e-19 0.269289)
(-1.669 0 0.271511)
(4.60622 0 -0.910072)
(-1.16078 0 0.507068)
(-16.5591 -1.18669e-17 3.2078)
(-0.741823 0 -0.466461)
(25.754 -3.88662e-18 -5.24451)
(18.1537 1.24108e-19 -2.94182)
(-14.5526 7.27578e-18 3.50895)
(-26.1136 1.64168e-17 5.08717)
(-18.9765 0 3.4001)
(-8.64322 -1.68679e-18 1.41092)
(-0.515969 -9.12281e-19 -0.084096)
(5.2947 6.23921e-19 -1.11894)
(5.65945 0 -1.0379)
(1.82833 3.97235e-19 -0.246623)
(-2.24866 0 0.483113)
(0.00191654 0 -0.0148099)
(-0.00960195 0 -0.00749982)
(-0.0119107 -2.23179e-21 0.005655)
(-0.0106851 0 0.0112661)
(-0.0144833 2.0851e-21 0.0133076)
(-0.0236236 -4.09552e-21 0.0154917)
(-0.0358456 0 0.0178342)
(-0.0489146 3.81425e-21 0.0190738)
(-0.0601495 -3.65119e-21 0.018487)
(-0.0669827 -3.45235e-21 0.0164756)
(-0.0680426 -3.30133e-21 0.014084)
(-0.063637 3.08222e-21 0.012171)
(-0.0553613 -2.89662e-21 0.0110719)
(-0.0453228 5.29812e-21 0.0107311)
(-0.0355102 0 0.0109085)
(-0.0274255 4.25458e-21 0.0112846)
(-0.0219192 0 0.0115378)
(-0.0192203 0 0.0114466)
(-0.0191462 0 0.0109666)
(-0.0213786 -2.0172e-21 0.0102205)
(-0.025653 -2.78339e-23 0.00940983)
(-0.0317867 -3.49458e-23 0.00871295)
(-0.0395759 -8.82314e-22 0.00822332)
(-0.0486781 0 0.00795639)
(-0.0585872 0 0.00790801)
(-0.0687254 0 0.0081072)
(-0.0785823 -2.69589e-21 0.00862459)
(-0.0878183 -5.96821e-23 0.0095469)
(-0.096293 0 0.0109417)
(-0.10401 0 0.0128189)
(-0.111013 0 0.0151058)
(-0.117276 0 0.017647)
(-0.122638 -9.06141e-21 0.0202308)
(-0.126803 0 0.0226286)
(-0.129428 1.08207e-20 0.0246512)
(-0.130272 0 0.0261931)
(-0.129349 0 0.0272406)
(-0.126955 1.11705e-20 0.0278377)
(-0.123604 0 0.0280465)
(-0.11987 0 0.0279234)
(-0.116259 -9.2724e-21 0.0275092)
(-0.113132 1.65782e-20 0.026846)
(-0.110694 0 0.0259859)
(-0.109047 1.23122e-20 0.0250162)
(-0.108202 0 0.0240293)
(-0.108164 -1.6515e-20 0.023143)
(-0.108866 -8.46842e-23 0.0224311)
(-0.110288 0 0.0219768)
(-0.112294 0 0.0217738)
(-0.114838 2.77667e-21 0.0218435)
(-0.117685 4.23684e-21 0.0220927)
(-0.12083 -6.72669e-21 0.022535)
(-0.124066 0 0.0230651)
(-0.12762 -3.94766e-21 0.0237786)
(-0.131393 -4.80101e-21 0.0245865)
(-0.135782 -6.12337e-21 0.0256443)
(-0.140458 -7.47476e-21 0.0267696)
(-0.145663 0 0.0280958)
(-0.150658 0 0.0293075)
(-0.155844 -2.01582e-20 0.0306137)
(-0.160504 -4.20742e-20 0.03166)
(-0.165584 -2.08202e-20 0.0328437)
(-0.170399 9.72672e-23 0.033781)
(-0.176266 1.97139e-20 0.0350419)
(-0.18195 1.95746e-20 0.0360538)
(-0.18899 0 0.0375199)
(-0.195324 0 0.0385701)
(-0.203346 3.59182e-20 0.0402098)
(-0.210164 7.405e-20 0.0412469)
(-0.219688 0 0.0431884)
(-0.227269 3.2227e-20 0.0442947)
(-0.238961 2.46856e-20 0.0467691)
(-0.247068 2.50762e-20 0.0479519)
(-0.261115 3.48816e-20 0.0510639)
(-0.268802 0 0.0520921)
(-0.285369 0 0.0558625)
(-0.29177 4.52792e-20 0.0564905)
(-0.31196 -5.10038e-20 0.0611602)
(-0.316726 -4.3781e-20 0.0612668)
(-0.341871 0 0.0671392)
(-0.344498 0 0.0665842)
(-0.375739 0 0.0738813)
(-0.375397 0 0.0724353)
(-0.412777 0 0.0811348)
(-0.408439 0 0.0786137)
(-0.451167 -4.09825e-21 0.0885541)
(-0.443814 1.01714e-22 0.0852483)
(-0.489558 -2.05852e-21 0.095839)
(-0.48052 0 0.092214)
(-0.524725 -1.06233e-20 0.102211)
(-0.512166 1.00626e-20 0.0981592)
(-0.546982 0 0.105827)
(-0.533439 3.59378e-21 0.102765)
(-0.590218 7.30687e-20 0.114777)
(-0.584556 0 0.113243)
(-0.66039 0 0.12489)
(-0.463335 0 0.0823239)
(-0.432532 1.697e-19 0.0731433)
(0.0115398 0 -0.015921)
(-0.035784 0 0.00229487)
(0.267057 -1.2283e-19 -0.0502178)
(-0.133582 1.93342e-19 0.0412477)
(-0.149109 0 0.0596463)
(-1.94508 0 0.41014)
(-2.13574 0 0.280445)
(5.89106 0 -1.17394)
(-2.50081 0 1.003)
(-21.744 -3.27555e-20 4.19954)
(1.07399 0 -1.27204)
(34.2444 3.63697e-18 -7.12373)
(21.7916 -3.11393e-18 -3.09977)
(-21.4966 0 5.39844)
(-35.2703 3.57489e-20 6.89138)
(-25.0008 0 4.32566)
(-11.1539 -3.34569e-20 1.66266)
(-0.297392 0 -0.29517)
(7.2538 -5.83348e-19 -1.56211)
(7.25443 0 -1.30192)
(1.99222 4.05199e-19 -0.183202)
(-3.33731 0 0.73821)
(-0.00136128 0 -0.00163316)
(-0.011796 0 -0.000237047)
(-0.0165979 0 0.00732464)
(-0.0173081 0 0.013006)
(-0.0199677 -1.96819e-21 0.0172392)
(-0.0263405 1.15822e-23 0.0215298)
(-0.0361727 0 0.0253374)
(-0.0485173 -3.60016e-21 0.0270405)
(-0.0611904 0 0.0256702)
(-0.0712406 6.49389e-21 0.0219416)
(-0.07632 0 0.0176463)
(-0.0757264 -2.90981e-21 0.0143333)
(-0.0704401 0 0.0126415)
(-0.0624145 -5.0022e-21 0.0124617)
(-0.0537941 2.25351e-21 0.0133213)
(-0.0463823 -4.00726e-21 0.0146179)
(-0.0413381 3.46773e-21 0.0157666)
(-0.0390905 2.92698e-21 0.0163609)
(-0.0395029 0 0.016289)
(-0.0421934 1.90478e-21 0.015708)
(-0.0468126 1.47193e-21 0.0148966)
(-0.0531389 2.24917e-21 0.0140918)
(-0.0609866 8.33142e-22 0.0134013)
(-0.0700522 0 0.0128261)
(-0.0798536 0 0.0123602)
(-0.0898153 0 0.012071)
(-0.0994273 1.30679e-21 0.0121041)
(-0.108374 1.63946e-21 0.0126317)
(-0.116575 0 0.0137907)
(-0.12411 0 0.0156221)
(-0.131089 -3.18167e-21 0.018039)
(-0.137514 0 0.0208363)
(-0.14321 3.37132e-23 0.0237374)
(-0.147832 9.29965e-21 0.0264563)
(-0.150973 -9.94894e-21 0.0287741)
(-0.15234 0 0.0305909)
(-0.151924 0 0.0319199)
(-0.150038 -1.05429e-20 0.0328277)
(-0.147236 0 0.0333761)
(-0.144122 0 0.0335954)
(-0.141206 8.75002e-21 0.0334857)
(-0.138821 -1.56433e-20 0.0330542)
(-0.137139 0 0.0323337)
(-0.136238 -1.16163e-20 0.0314191)
(-0.136118 0 0.0304223)
(-0.136792 7.80814e-21 0.0294968)
(-0.138206 6.1569e-21 0.0287411)
(-0.140367 0 0.0282709)
(-0.143145 3.67211e-21 0.0280815)
(-0.146509 -2.61856e-21 0.0282095)
(-0.150197 -8.29273e-21 0.0285375)
(-0.154218 3.31643e-21 0.0290986)
(-0.158335 -3.53147e-21 0.0297604)
(-0.162837 -2.06485e-22 0.0306634)
(-0.167616 0 0.0316845)
(-0.17316 5.77152e-21 0.0330323)
(-0.179088 7.04455e-21 0.034452)
(-0.185719 -8.07735e-21 0.0361384)
(-0.19219 8.99531e-21 0.0376789)
(-0.199016 1.89919e-20 0.0393886)
(-0.205344 1.97671e-20 0.0407905)
(-0.212304 -1.9423e-20 0.0424302)
(-0.219051 1.94729e-20 0.0437527)
(-0.227129 0 0.045518)
(-0.235044 0 0.0469183)
(-0.244623 1.72096e-20 0.048922)
(-0.253421 0 0.0503547)
(-0.264307 0 0.0526053)
(-0.273835 -3.47551e-20 0.0540563)
(-0.286672 0 0.0567369)
(-0.297244 -3.03207e-20 0.0582865)
(-0.312812 -4.65148e-20 0.0616515)
(-0.324127 0 0.063273)
(-0.342704 -1.64711e-20 0.0674584)
(-0.353667 0 0.0688817)
(-0.375567 0 0.0739671)
(-0.385145 -4.27728e-20 0.0749071)
(-0.411762 2.40182e-20 0.081216)
(-0.419428 -1.52576e-22 0.0814765)
(-0.452465 0 0.0893905)
(-0.457507 0 0.0887563)
(-0.498521 0 0.0985828)
(-0.499765 -3.63379e-20 0.0967274)
(-0.549034 5.53427e-21 0.108485)
(-0.545001 0 0.105147)
(-0.601892 7.61476e-21 0.118716)
(-0.593469 5.26464e-20 0.114203)
(-0.655536 3.79736e-21 0.128888)
(-0.644191 -3.25379e-20 0.123767)
(-0.705977 1.97682e-20 0.137956)
(-0.689027 0 0.132057)
(-0.740983 0 0.143583)
(-0.722457 -3.36963e-21 0.139522)
(-0.801472 -6.85027e-20 0.15642)
(-0.788734 4.28821e-21 0.153047)
(-0.881441 0 0.165334)
(-0.627227 0 0.108735)
(-0.593665 -1.58998e-19 0.0966188)
(-0.0493718 1.28846e-19 -0.0122763)
(-0.140544 0 0.0200308)
(0.218252 1.15033e-19 -0.0405675)
(-0.331885 -1.81044e-19 0.0876007)
(-0.348936 0 0.125106)
(-2.60817 0 0.56776)
(-2.51008 0 0.242787)
(6.78935 0 -1.34978)
(-4.1555 0 1.7654)
(-25.98 1.04235e-17 4.94855)
(3.65757 0 -2.58178)
(41.3164 0 -8.74068)
(23.4555 0 -2.64411)
(-28.7463 -6.21659e-18 7.54447)
(-43.4577 -7.22386e-18 8.47286)
(-30.1026 0 4.96743)
(-13.1689 1.50598e-18 1.72879)
(0.0903454 0 -0.598675)
(9.0432 -5.61368e-19 -2.00638)
(8.46658 0 -1.46292)
(1.87843 -3.78667e-19 -0.0296389)
(-4.48362 0 1.02024)
(-0.00412648 1.81724e-21 0.00644933)
(-0.0122177 1.81287e-21 0.00564735)
(-0.0171576 -1.80854e-21 0.00948171)
(-0.0192954 -1.82644e-21 0.0145255)
(-0.0216871 0 0.0197576)
(-0.0255044 1.81283e-21 0.025374)
(-0.0314916 0 0.0305084)
(-0.0402121 -3.37102e-21 0.0332337)
(-0.0510279 -3.20861e-21 0.032054)
(-0.0618986 -6.08489e-21 0.0273852)
(-0.0702835 2.86462e-21 0.0213945)
(-0.0744053 -2.69452e-21 0.0164004)
(-0.0739748 0 0.0136373)
(-0.070038 0 0.0131874)
(-0.0643578 -2.12455e-21 0.0144709)
(-0.0588079 8.07742e-24 0.0166292)
(-0.0548936 -6.56932e-24 0.0187702)
(-0.0534347 9.24989e-25 0.0202227)
(-0.0545406 0 0.0207342)
(-0.0578807 0 0.0204615)
(-0.0630424 0 0.0197627)
(-0.0697457 -2.169e-21 0.0189527)
(-0.0778195 -8.39658e-22 0.0181651)
(-0.0870276 0 0.0173813)
(-0.0969493 0 0.0165783)
(-0.107027 -1.15745e-21 0.0158519)
(-0.116731 0 0.0154204)
(-0.125723 0 0.0155471)
(-0.133932 0 0.0164454)
(-0.14149 0 0.0181917)
(-0.148574 2.88989e-24 0.0206843)
(-0.155234 0 0.0236656)
(-0.161307 2.85332e-23 0.0267956)
(-0.166424 -8.7663e-21 0.0297373)
(-0.170138 1.01726e-22 0.0322535)
(-0.172101 0 0.034264)
(-0.17227 0 0.0358229)
(-0.170955 0 0.0370276)
(-0.168735 0 0.0379396)
(-0.166252 0 0.0385567)
(-0.164029 0 0.038828)
(-0.162383 0 0.0387161)
(-0.161459 1.26472e-20 0.0382278)
(-0.161314 1.08216e-20 0.0374616)
(-0.161943 0 0.0365444)
(-0.16337 7.40174e-21 0.0356625)
(-0.165552 0 0.0349338)
(-0.168523 0 0.034504)
(-0.172152 -7.02315e-21 0.0343657)
(-0.176429 0 0.0345731)
(-0.181065 4.04718e-21 0.034985)
(-0.186088 0 0.0356643)
(-0.191234 6.88027e-21 0.036455)
(-0.196849 -1.94001e-22 0.037555)
(-0.202813 0 0.0388014)
(-0.209695 0 0.0404621)
(-0.21705 0 0.0421945)
(-0.225278 1.52204e-20 0.0442647)
(-0.233397 -1.69188e-20 0.0461483)
(-0.242039 -1.77343e-20 0.048289)
(-0.250219 -1.84389e-20 0.0500707)
(-0.25925 3.64747e-20 0.0522149)
(-0.268122 1.81669e-20 0.0539644)
(-0.278607 0 0.0562972)
(-0.288947 0 0.0581269)
(-0.301265 -7.79196e-23 0.060729)
(-0.312751 0 0.0625784)
(-0.326739 0 0.0655082)
(-0.339245 -3.23256e-20 0.067414)
(-0.355664 0 0.070919)
(-0.369533 0 0.0729562)
(-0.389264 4.38168e-20 0.0773047)
(-0.40413 -2.2514e-20 0.0793996)
(-0.427546 0 0.0847557)
(-0.442191 0 0.0866041)
(-0.469783 0 0.0931237)
(-0.483032 4.01703e-20 0.0944131)
(-0.516494 0 0.102512)
(-0.52763 7.76854e-20 0.102962)
(-0.569043 -1.57899e-20 0.1131)
(-0.577122 0 0.112412)
(-0.628494 0 0.124989)
(-0.631965 3.40989e-20 0.122729)
(-0.693912 3.03825e-23 0.137822)
(-0.690793 3.06823e-20 0.133641)
(-0.763013 -3.53406e-21 0.151203)
(-0.753941 4.9146e-20 0.145403)
(-0.834102 -1.74944e-21 0.164666)
(-0.820472 3.05075e-20 0.157873)
(-0.902439 -1.74687e-22 0.176863)
(-0.880641 0 0.168819)
(-0.953608 1.88134e-20 0.185153)
(-0.929108 0 0.179696)
(-1.03399 0 0.201964)
(-1.01056 -4.01705e-21 0.196451)
(-1.12114 0 0.20844)
(-0.810683 0 0.13756)
(-0.78284 0 0.123609)
(-0.151685 -1.20641e-19 -0.00205318)
(-0.302241 0 0.0485152)
(0.102211 1.06544e-19 -0.016816)
(-0.60834 0 0.151235)
(-0.622047 0 0.210444)
(-3.30448 0 0.732494)
(-2.81791 0 0.174709)
(7.271 0 -1.42854)
(-6.06298 3.34754e-18 2.45147)
(-29.2311 9.82745e-18 5.44948)
(6.70555 3.48079e-18 -4.26885)
(46.7506 0 -10.0424)
(23.2567 0 -1.61063)
(-36.0663 1.15896e-17 9.86744)
(-50.5294 0 9.81546)
(-34.2762 -1.09138e-18 5.34236)
(-14.7156 0 1.62427)
(0.598363 -7.94962e-19 -0.982114)
(10.6246 5.24596e-19 -2.38308)
(9.29941 0 -1.52763)
(1.51608 -3.94076e-19 0.203535)
(-5.64798 0 1.31953)
(-0.00629325 -1.71134e-21 0.0118964)
(-0.012411 -3.44699e-21 0.0106537)
(-0.0164941 1.70356e-21 0.0124133)
(-0.0190993 2.50752e-24 0.0161847)
(-0.0214058 -1.7136e-21 0.0210872)
(-0.0234681 0 0.0268733)
(-0.0259304 0 0.0326653)
(-0.029981 3.17435e-21 0.0365355)
(-0.0363671 6.03442e-21 0.0365239)
(-0.0446807 8.11449e-24 0.032299)
(-0.0533921 -2.69722e-21 0.0257004)
(-0.0605898 2.53703e-21 0.0194262)
(-0.0649294 -2.34768e-21 0.015364)
(-0.0661365 0 0.0140758)
(-0.0649319 0 0.0151745)
(-0.062678 1.76862e-21 0.0177539)
(-0.0609112 -6.13004e-21 0.0206918)
(-0.060826 -5.19407e-21 0.0230032)
(-0.0629425 0 0.0241867)
(-0.067159 0 0.0243101)
(-0.0730863 0 0.0237813)
(-0.0803856 -1.92376e-23 0.0230112)
(-0.0888815 1.60292e-21 0.0221882)
(-0.0984204 -6.48907e-22 0.0212811)
(-0.108687 -1.13071e-21 0.0202353)
(-0.119179 2.21336e-21 0.0191538)
(-0.12935 -1.26586e-21 0.0183155)
(-0.138788 -1.53766e-21 0.0180732)
(-0.147366 -1.91002e-21 0.018724)
(-0.155221 0 0.020388)
(-0.162593 2.82137e-21 0.02295)
(-0.169611 -3.27494e-21 0.0260978)
(-0.176171 3.72259e-21 0.0294257)
(-0.181921 8.10622e-21 0.0325471)
(-0.186392 1.73803e-20 0.0352118)
(-0.189186 0 0.0373679)
(-0.190195 0 0.0391208)
(-0.189682 9.00415e-21 0.0406083)
(-0.188231 0 0.0418959)
(-0.186516 -8.17502e-21 0.0429488)
(-0.185097 -7.5107e-21 0.0436592)
(-0.184291 0 0.0439384)
(-0.184219 -2.37175e-20 0.0437616)
(-0.184916 -1.01838e-20 0.0432285)
(-0.186369 0 0.0424779)
(-0.188617 -6.96475e-21 0.0417268)
(-0.191625 -5.60546e-21 0.0411054)
(-0.195453 0 0.0407859)
(-0.199977 6.78811e-21 0.040751)
(-0.205211 -2.66047e-21 0.0410737)
(-0.210848 -4.25686e-21 0.0415852)
(-0.216943 0 0.042389)
(-0.223206 1.99229e-22 0.0433042)
(-0.230043 7.49653e-21 0.0446012)
(-0.237304 0 0.0460697)
(-0.245643 0 0.0480499)
(-0.25454 -6.38405e-21 0.0500939)
(-0.264491 -7.16229e-21 0.0525566)
(-0.274385 1.58969e-20 0.0547813)
(-0.284989 1.66707e-20 0.0573686)
(-0.295171 1.73315e-20 0.0595371)
(-0.306445 -1.71063e-20 0.0622222)
(-0.317605 -3.40912e-20 0.0644226)
(-0.330678 0 0.0673818)
(-0.343613 0 0.0696752)
(-0.358871 -3.02074e-20 0.0729503)
(-0.373243 0 0.0752548)
(-0.390583 0 0.0789538)
(-0.406308 3.03607e-20 0.0813529)
(-0.426606 0 0.0857873)
(-0.44405 -2.66233e-20 0.088345)
(-0.46828 9.18774e-24 0.0937966)
(-0.487012 2.11364e-20 0.0963874)
(-0.515659 0 0.103053)
(-0.534354 0 0.105336)
(-0.568103 0 0.113457)
(-0.585458 3.79487e-20 0.115092)
(-0.626313 0 0.125187)
(-0.641406 -3.65065e-20 0.125806)
(-0.691846 2.98179e-20 0.138429)
(-0.703487 0 0.137641)
(-0.76601 0 0.153294)
(-0.772239 0 0.150545)
(-0.847906 6.10005e-23 0.16938)
(-0.846204 -2.87639e-20 0.164231)
(-0.935225 -3.30331e-21 0.186307)
(-0.925837 -4.60618e-20 0.179034)
(-1.0262 -1.44694e-21 0.203531)
(-1.01019 0 0.19478)
(-1.11533 -8.44566e-21 0.219346)
(-1.08812 0 0.20879)
(-1.1865 -1.76217e-20 0.230928)
(-1.15467 0 0.22378)
(-1.28969 0 0.252201)
(-1.2516 0 0.243681)
(-1.3834 1.13443e-19 0.255021)
(-1.01843 -1.00607e-20 0.169309)
(-1.00818 0 0.155494)
(-0.302895 1.13524e-19 0.0161046)
(-0.529798 5.17582e-20 0.0899913)
(-0.0874824 -9.96909e-20 0.0229062)
(-0.968308 1.53504e-19 0.234499)
(-0.969686 0 0.318526)
(-4.02875 0 0.905719)
(-3.0978 0 0.074442)
(7.31844 0 -1.40253)
(-8.02547 -3.13026e-18 3.3874)
(-31.5025 4.73101e-20 5.6815)
(9.92437 -6.54741e-18 -6.01233)
(50.3729 0 -10.9621)
(21.3721 0 -0.0249253)
(-43.2111 -5.40017e-18 12.2668)
(-56.3891 0 10.8728)
(-37.5529 1.01987e-18 5.44568)
(-15.8309 0 1.3535)
(1.18181 1.49331e-18 -1.43446)
(11.9281 0 -2.83281)
(9.772 0 -1.49328)
(0.941467 3.68122e-19 0.510982)
(-6.78465 0 1.62622)
(-0.00806307 0 0.0158515)
(-0.012987 1.63646e-21 0.0146841)
(-0.0160392 0 0.0153633)
(-0.0184517 1.61626e-21 0.0178433)
(-0.020643 3.22188e-21 0.0217899)
(-0.0218566 0 0.0269412)
(-0.0222031 -1.53147e-21 0.0326108)
(-0.0226845 0 0.0372073)
(-0.0245151 -1.33714e-23 0.0386911)
(-0.028523 5.35183e-21 0.0360181)
(-0.0346194 0 0.0302195)
(-0.0417531 0 0.0237407)
(-0.0484703 2.20813e-21 0.0187824)
(-0.0536285 0 0.0164104)
(-0.0568154 0 0.0166765)
(-0.05843 0 0.0189448)
(-0.0595127 2.87592e-21 0.0221194)
(-0.0612958 2.4404e-21 0.0249997)
(-0.0646569 2.01351e-21 0.0267758)
(-0.0698523 0 0.0273051)
(-0.0766532 0 0.0269587)
(-0.0847029 9.88481e-22 0.0262311)
(-0.0937917 -7.63971e-22 0.0253974)
(-0.103826 6.10315e-22 0.0244361)
(-0.114618 1.06346e-21 0.0232497)
(-0.125774 -2.14541e-21 0.0219189)
(-0.136761 -2.34847e-23 0.0207553)
(-0.147074 1.44617e-21 0.0201881)
(-0.156448 1.79634e-21 0.0206052)
(-0.16494 0 0.022187)
(-0.172816 0 0.024817)
(-0.180306 3.07986e-21 0.0281295)
(-0.187424 0 0.0316504)
(-0.193897 -7.62299e-21 0.0349398)
(-0.199276 -8.13169e-21 0.0377316)
(-0.20312 8.36706e-21 0.0400043)
(-0.205236 0 0.0419203)
(-0.20579 -8.46639e-21 0.0436672)
(-0.205322 -8.08685e-21 0.0453247)
(-0.204532 7.0632e-23 0.0468312)
(-0.204043 1.40626e-20 0.04802)
(-0.204201 0 0.0487448)
(-0.205112 1.11073e-20 0.0489423)
(-0.206781 0 0.0487122)
(-0.209183 0 0.048203)
(-0.212363 0 0.0476615)
(-0.216295 -2.35365e-23 0.0472232)
(-0.221061 0 0.0470844)
(-0.226544 -3.22803e-21 0.0472098)
(-0.232798 5.07424e-21 0.047693)
(-0.239501 4.00023e-21 0.0483314)
(-0.246748 0 0.049279)
(-0.254217 -3.32888e-21 0.0503246)
(-0.262373 -7.35966e-21 0.0518268)
(-0.271025 0 0.0535167)
(-0.280916 0 0.0558242)
(-0.291441 5.99687e-21 0.058176)
(-0.303215 6.79539e-21 0.0610401)
(-0.314982 -7.46679e-21 0.0635994)
(-0.327677 -1.56289e-20 0.0666496)
(-0.339981 0 0.0692054)
(-0.353653 0 0.0724662)
(-0.367231 3.67934e-23 0.0751307)
(-0.383064 -1.51174e-20 0.0787736)
(-0.398733 0 0.0815538)
(-0.41714 1.4151e-20 0.0855808)
(-0.434568 0 0.0883695)
(-0.455529 0 0.0929386)
(-0.474681 0 0.0958592)
(-0.499191 0 0.101344)
(-0.520449 8.66381e-23 0.104441)
(-0.549581 -1.4945e-23 0.11114)
(-0.572454 -1.99252e-20 0.114232)
(-0.606823 0 0.122381)
(-0.629883 -1.76339e-20 0.125085)
(-0.670394 0 0.135019)
(-0.692208 -3.55846e-20 0.136963)
(-0.741191 2.03514e-20 0.149321)
(-0.76062 -3.44399e-20 0.150042)
(-0.820984 -1.40669e-20 0.165485)
(-0.836564 0 0.164496)
(-0.911343 8.94924e-21 0.18364)
(-0.920682 0 0.180254)
(-1.0115 -4.64578e-21 0.203342)
(-1.0115 -2.68428e-20 0.197029)
(-1.11924 3.09464e-21 0.224255)
(-1.10963 0 0.215252)
(-1.2328 2.57361e-21 0.24575)
(-1.21406 0 0.234686)
(-1.34593 -7.52661e-21 0.265722)
(-1.31249 0 0.252231)
(-1.44136 -1.60551e-20 0.281327)
(-1.40039 0 0.272023)
(-1.57066 -5.49161e-20 0.307999)
(-1.51382 3.03333e-21 0.294469)
(-1.67288 -1.0616e-19 0.305369)
(-1.25553 9.41429e-21 0.20573)
(-1.27842 0 0.194324)
(-0.510337 -2.12907e-19 0.0441735)
(-0.832584 -9.57174e-20 0.146533)
(-0.356577 0 0.0799423)
(-1.4177 -1.43563e-19 0.338439)
(-1.39328 0 0.448492)
(-4.78091 0 1.0837)
(-3.38931 1.38481e-18 -0.0388496)
(6.95807 0 -1.27128)
(-9.9232 0 4.51225)
(-32.8846 -8.63318e-18 5.65028)
(12.9505 6.20678e-18 -7.89054)
(52.072 2.97769e-18 -11.4505)
(18.0291 0 2.06351)
(-49.9239 0 14.7115)
(-60.9939 0 11.6201)
(-39.9903 0 5.29901)
(-16.5548 -1.32468e-18 0.926645)
(1.79448 -7.01125e-19 -1.94544)
(12.9765 0 -3.06842)
(9.92571 0 -1.36511)
(0.194413 0 0.88349)
(-7.84337 0 1.92937)
(-0.00966375 -1.62458e-21 0.0191465)
(-0.0137781 0 0.0180456)
(-0.0159391 -1.54796e-21 0.018149)
(-0.0179433 0 0.0196441)
(-0.0199481 -1.51292e-21 0.0225889)
(-0.0208782 0 0.0268091)
(-0.0204557 1.4394e-21 0.0318301)
(-0.0192427 -2.75093e-21 0.036539)
(-0.0182083 -5.28219e-21 0.0391865)
(-0.0185241 -1.6509e-23 0.0383817)
(-0.0210735 0 0.0343179)
(-0.0259045 0 0.0287562)
(-0.0321925 0 0.02374)
(-0.0387404 0 0.0205834)
(-0.0445479 0 0.0197658)
(-0.0491658 0 0.0211027)
(-0.052863 -2.64256e-21 0.0238121)