/*--------------------------------*- C++ -*----------------------------------*\
| =========                 |                                                 |
| \\      /  F ield         | OpenFOAM: The Open Source CFD Toolbox           |
|  \\    /   O peration     | Version:  2412                                  |
|   \\  /    A nd           | Website:  www.openfoam.com                      |
|    \\/     M anipulation  |                                                 |
\*---------------------------------------------------------------------------*/
FoamFile
{
    version     2.0;
    format      ascii;
    arch        "LSB;label=32;scalar=64";
    class       surfaceScalarField;
    location    "0.575";
    object      phi;
}
// * * * * * * * * * * * * * * * * * * * * * * * * * * * * * * * * * * * * * //

dimensions      [0 3 -1 0 0 0 0];

oriented        oriented;

internalField   nonuniform List<scalar> 
24930
(
0.01797
0.0127555
-0.0307259
0.0106062
0.00736384
0.00695548
0.00365068
0.00517927
0.00177622
0.00420707
0.000972197
0.00358405
0.000623014
0.00313805
0.000446004
0.00279845
0.000339589
0.00252921
0.000269246
0.00230923
0.000219971
0.00212538
0.000183852
0.00196891
0.000156466
0.00183378
0.000135131
0.00171564
0.000118142
0.00161127
0.000104366
0.00151826
9.30177e-05
0.00143471
8.35425e-05
0.00135918
7.55378e-05
0.00129047
6.87051e-05
0.00122765
6.28191e-05
0.00116994
5.77072e-05
0.00111671
5.32349e-05
0.00106741
4.92965e-05
0.00102161
4.58074e-05
0.000978906
4.26997e-05
0.000938987
3.9918e-05
0.00090157
3.74169e-05
0.00086641
3.51589e-05
0.000833296
3.31127e-05
0.000802043
3.12519e-05
0.000772487
2.95544e-05
0.000744485
2.80012e-05
0.000717907
2.65765e-05
0.000692639
2.52661e-05
0.00066858
2.40586e-05
0.000645636
2.29429e-05
0.000623724
2.19112e-05
0.000602769
2.09543e-05
0.000582701
2.00669e-05
0.000563461
1.92408e-05
0.000544987
1.84735e-05
0.000527231
1.77567e-05
0.000510141
1.70907e-05
0.000493675
1.64662e-05
0.000477789
1.58867e-05
0.000462449
1.53411e-05
0.000447613
1.48367e-05
0.000433254
1.4359e-05
0.000419334
1.39207e-05
0.000405833
1.35019e-05
0.00039271
1.31226e-05
0.000379955
1.27555e-05
0.000367525
1.24296e-05
0.000355417
1.21081e-05
0.000343585
1.18314e-05
0.000332035
1.15501e-05
0.000320715
1.13193e-05
0.000309641
1.10733e-05
0.000298755
1.0886e-05
0.000288084
1.06709e-05
0.000277558
1.05256e-05
0.000267221
1.03374e-05
0.000256988
1.02329e-05
0.00024692
1.00673e-05
0.000236917
1.00028e-05
0.000227062
9.85522e-06
0.000217232
9.83069e-06
0.000207536
9.69636e-06
0.000197824
9.71177e-06
0.000188239
9.5853e-06
0.000178599
9.64001e-06
0.000169083
9.51562e-06
0.000159475
9.60808e-06
0.000149995
9.47964e-06
0.000140388
9.60712e-06
0.00013092
9.46862e-06
0.000121293
9.62622e-06
0.000111821
9.47271e-06
0.000102169
9.65215e-06
9.26872e-05
9.48149e-06
8.30168e-05
9.67042e-06
7.35319e-05
9.48502e-06
6.38669e-05
9.66512e-06
5.43922e-05
9.47496e-06
4.477e-05
9.6223e-06
3.53215e-05
9.44877e-06
2.57898e-05
9.53192e-06
1.63818e-05
9.40826e-06
6.99207e-06
9.38999e-06
-2.36095e-06
9.35335e-06
-1.15885e-05
9.2278e-06
-2.09354e-05
9.34728e-06
-2.99987e-05
9.06354e-06
-3.93524e-05
9.35408e-06
-4.81225e-05
8.77035e-06
-5.74189e-05
9.29663e-06
-6.61378e-05
8.71884e-06
-7.65244e-05
1.03861e-05
-8.65001e-05
9.97345e-06
-0.000100215
1.37137e-05
-0.000112239
1.20285e-05
-0.000129753
1.75237e-05
-0.000144426
1.46708e-05
-0.000157985
1.35388e-05
-0.000160721
2.73485e-06
-0.000214135
5.34216e-05
-0.000253156
3.90557e-05
-0.000131966
-0.000121203
-8.7877e-05
-4.41226e-05
-0.000370999
0.000283117
-0.000710258
0.000339299
-0.000697336
-1.28889e-05
-0.00035736
-0.00033997
-8.53418e-06
-0.000348844
0.000220737
-0.000229295
0.000321345
-0.000100617
0.000320757
5.8197e-07
0.000278319
4.24508e-05
0.000293952
-1.56225e-05
-0.000130311
0.0336812
0.0163173
-0.037243
0.0277471
0.013298
0.0221962
0.0092016
0.017923
0.00604941
0.0148773
0.00401781
0.0127171
0.00278322
0.0111302
0.00203294
0.00991323
0.00155656
0.00894604
0.00123643
0.00815572
0.0010103
0.0074955
0.000844065
0.00693411
0.000717861
0.00644975
0.000619487
0.00602676
0.000541132
0.00565354
0.000477584
0.00532131
0.000425242
0.00502331
0.00038155
0.00475419
0.000344651
0.00450973
0.000313168
0.00428649
0.000286061
0.00408167
0.000262531
0.00389295
0.000241956
0.00371839
0.000223848
0.00355639
0.000207815
0.00340554
0.000193543
0.00326468
0.000180776
0.0031328
0.000169303
0.003009
0.000158951
0.00289254
0.000149575
0.00278273
0.000141053
0.002679
0.000133283
0.00258082
0.000126177
0.00248774
0.000119662
0.00239933
0.000113672
0.00231523
0.000108155
0.00223511
0.00010306
0.00215867
9.83491e-05
0.00208564
9.39823e-05
0.00201577
8.99323e-05
0.00194885
8.61655e-05
0.00188466
8.26644e-05
0.00182302
7.93982e-05
0.00176375
7.63592e-05
0.0017067
7.35158e-05
0.00165172
7.08708e-05
0.00159867
6.83887e-05
0.00154743
6.60842e-05
0.00149787
6.39136e-05
0.00144989
6.19069e-05
0.00140338
6.00075e-05
0.00135824
5.82648e-05
0.00131439
5.66038e-05
0.00127172
5.50986e-05
0.00123018
5.36491e-05
0.00118965
5.23605e-05
0.0011501
5.1099e-05
0.00111141
5.00099e-05
0.00107357
4.89161e-05
0.00103644
4.80135e-05
0.00100004
4.70699e-05
0.000964223
4.63441e-05
0.000929025
4.55345e-05
0.00089428
4.49775e-05
0.000860062
4.42855e-05
0.000826174
4.38907e-05
0.000792729
4.32995e-05
0.000759497
4.30627e-05
0.000726639
4.2555e-05
0.000693879
4.24721e-05
0.000661436
4.20284e-05
0.000628983
4.20926e-05
0.000596808
4.16909e-05
0.000564524
4.18924e-05
0.000532495
4.15089e-05
0.000500269
4.18333e-05
0.000468294
4.14436e-05
0.000436051
4.18694e-05
0.000404074
4.14499e-05
0.000371781
4.19446e-05
0.000339783
4.14791e-05
0.000307456
4.19979e-05
0.000275458
4.1483e-05
0.00024316
4.19633e-05
0.000211217
4.14185e-05
0.000179057
4.17825e-05
0.000147241
4.12642e-05
0.000115361
4.14126e-05
8.37515e-05
4.10178e-05
5.23069e-05
4.08349e-05
2.09856e-05
4.06749e-05
-9.92614e-06
4.01399e-05
-4.11175e-05
4.05391e-05
-7.15645e-05
3.95109e-05
-0.000102546
4.03356e-05
-0.000132063
3.8288e-05
-0.000162734
3.99687e-05
-0.000192347
3.83315e-05
-0.000226241
4.42813e-05
-0.000260128
4.38614e-05
-0.000303689
5.72751e-05
-0.000343873
5.22104e-05
-0.000398281
7.19292e-05
-0.000445579
6.19716e-05
-0.000484986
5.29537e-05
-0.000502803
2.05525e-05
-0.000673282
0.000223898
-0.000754415
0.000120175
-0.000393143
-0.000482465
-0.000328069
-0.000109194
-0.00122398
0.00117902
-0.00216973
0.00128503
-0.00203772
-0.000144915
-0.000982603
-0.00139508
8.78215e-05
-0.00141925
0.000769987
-0.000911447
0.00106422
-0.000394847
0.00105925
5.54704e-06
0.000937549
0.000164145
0.00102756
-0.000105646
-0.00054349
0.0414504
0.0160108
-0.0411439
0.0391631
0.0155853
0.0352359
0.0131289
0.0309518
0.0103335
0.0270389
0.00793069
0.0237514
0.00607071
0.0210781
0.00470621
0.0189102
0.00372444
0.0171332
0.00301347
0.0156544
0.00248904
0.0144051
0.00209343
0.0133348
0.00178813
0.0124067
0.00154755
0.0115934
0.00135445
0.010874
0.00119696
0.0102326
0.00106668
0.00965656
0.000957586
0.00913599
0.000865222
0.0086629
0.000786264
0.00823078
0.000718177
0.0078343
0.000659007
0.00746904
0.000607224
0.00713127
0.000561616
0.00681787
0.000521214
0.00652618
0.000485235
0.00625391
0.00045304
0.00599911
0.000424104
0.00576007
0.000397992
0.0055353
0.00037434
0.00532351
0.000352842
0.00512355
0.000333241
0.0049344
0.000315317
0.00475518
0.000298882
0.00458507
0.000283775
0.00442337
0.00026986
0.00426941
0.000257012
0.00412263
0.000245132
0.00398249
0.000234122
0.00384851
0.00022391
0.00372026
0.000214415
0.00359734
0.000205587
0.00347938
0.000197355
0.00336605
0.000189691
0.00325704
0.000182527
0.00315206
0.000175855
0.00305084
0.000169603
0.00295314
0.000163785
0.00285874
0.00015832
0.0027674
0.000153248
0.00267894
0.000148468
0.00259315
0.000144056
0.00250987
0.000139879
0.00242891
0.000136058
0.00235015
0.000132417
0.00227338
0.000129131
0.00219851
0.000125969
0.00212534
0.000123173
0.00205382
0.000120441
0.00198373
0.0001181
0.00191504
0.000115755
0.00184754
0.000113842
0.00178123
0.000111847
0.00171587
0.000110338
0.0016515
0.000108655
0.00158786
0.000107531
0.00152504
0.000106123
0.00146273
0.000105367
0.00140109
0.000104196
0.00133977
0.000103794
0.00127898
0.000102816
0.00121833
0.000102748
0.0011581
0.000101913
0.00109785
0.000102151
0.00103795
0.000101406
0.00097787
0.000101912
0.000918115
0.000101199
0.000858064
0.00010192
0.000798335
0.000101178
0.000738239
0.000102041
0.000678496
0.000101222
0.000618366
0.000102128
0.000558644
0.000101206
0.000498585
0.000102022
0.000438989
0.000101015
0.000379189
0.000101582
0.00031987
0.000100584
0.00026058
0.000100703
0.000201705
9.98938e-05
0.000143206
9.93339e-05
8.49132e-05
9.89681e-05
2.74034e-05
9.76502e-05
-3.03874e-05
9.83304e-05
-8.69518e-05
9.60759e-05
-0.000144221
9.76051e-05
-0.000199058
9.31259e-05
-0.000255685
9.65963e-05
-0.000310873
9.35193e-05
-0.000373011
0.00010642
-0.000435816
0.000106666
-0.000514064
0.000135523
-0.000587305
0.000125452
-0.000683246
0.00016787
-0.00076685
0.00014558
-0.000834518
0.000120628
-0.000876211
6.2243e-05
-0.0011735
0.000521191
-0.0012726
0.000219271
-0.000666212
-0.00108886
-0.000641708
-0.000133684
-0.002211
0.00274832
-0.00371336
0.0027874
-0.00335845
-0.000499812
-0.00151077
-0.00324277
0.000329978
-0.00326
0.00147855
-0.00206001
0.00196668
-0.000882978
0.00195525
1.69877e-05
0.00176268
0.000356714
0.00196875
-0.000311722
-0.00129002
0.0459126
0.01471
-0.0446118
0.0459976
0.0155003
0.0444211
0.0147054
0.0417
0.0130546
0.038459
0.0111717
0.0351566
0.00937311
0.0320602
0.00780257
0.0292843
0.00650035
0.0268477
0.00545003
0.0247245
0.00461223
0.0228736
0.00394432
0.0212532
0.00340859
0.019826
0.00297475
0.0185609
0.00261956
0.0174323
0.00232555
0.0164194
0.00207958
0.0155052
0.00187178
0.0146758
0.00169462
0.0139197
0.00154232
0.0132275
0.00141039
0.0125912
0.00129531
0.0120042
0.00119429
0.0114607
0.00110508
0.010956
0.0010259
0.010486
0.000955253
0.0100471
0.000891946
0.00963622
0.000834975
0.0092507
0.000783509
0.00888819
0.000736851
0.00854662
0.00069441
0.00822416
0.000655689
0.00791922
0.00062026
0.00763034
0.000587762
0.00735623
0.000557877
0.00709575
0.000530339
0.00684785
0.000504908
0.0066116
0.000481384
0.00638614
0.000459581
0.0061707
0.00043935
0.00596457
0.000420539
0.00576711
0.000403043
0.00557774
0.000386731
0.0053959
0.000371536
0.00522109
0.000357336
0.00505284
0.0003441
0.00489074
0.000331705
0.00473437
0.000320156
0.00458338
0.000309319
0.00443738
0.000299242
0.00429609
0.000289763
0.00415916
0.000280983
0.00402634
0.000272701
0.00389732
0.000265081
0.00377187
0.000257862
0.00364971
0.000251291
0.00353066
0.000245024
0.00341442
0.00023941
0.00330086
0.000233999
0.00318969
0.000229269
0.00308081
0.000224635
0.00297392
0.000220731
0.00286897
0.000216801
0.00276563
0.000213674
0.00266391
0.000210378
0.00256345
0.000207984
0.00246432
0.000205254
0.00236613
0.000203559
0.002269
0.000201325
0.0021725
0.000200295
0.00207684
0.000198478
0.00198152
0.000198068
0.00188686
0.000196578
0.00179228
0.00019673
0.00169821
0.000195469
0.00160402
0.000196109
0.00151025
0.000194964
0.00141618
0.00019599
0.00132252
0.000194845
0.00122844
0.000196118
0.00113479
0.00019487
0.00104071
0.000196211
0.000947124
0.00019479
0.00085318
0.000195966
0.000759822
0.000194374
0.000666299
0.000195106
0.000573414
0.000193469
0.0004807
0.000193417
0.000388574
0.00019202
0.000297116
0.000190793
0.000206001
0.000190084
0.000116129
0.000187523
2.60238e-05
0.000188436
-6.22638e-05
0.000184364
-0.000151344
0.000186686
-0.000236856
0.000178639
-0.000324883
0.000184623
-0.000410949
0.000179587
-0.000506949
0.00020242
-0.000603975
0.000203691
-0.000722627
0.000254177
-0.000833706
0.000236532
-0.000976573
0.000310737
-0.00109945
0.000268461
-0.00119935
0.000220531
-0.001273
0.000135891
-0.00170206
0.000950251
-0.00179767
0.00031488
-0.000949128
-0.00193739
-0.00102839
-5.44374e-05
-0.00331209
0.00503201
-0.00529965
0.00477496
-0.00460819
-0.00119126
-0.00189525
-0.00595571
0.000756626
-0.00591186
0.00238122
-0.00368461
0.00306267
-0.00156442
0.00304599
3.36596e-05
0.00279717
0.000605527
0.00316227
-0.00067682
-0.00242805
0.0493793
0.013515
-0.0481844
0.0503442
0.0145355
0.0503641
0.0146855
0.0493443
0.0140744
0.0475023
0.0130137
0.0451304
0.011745
0.0425002
0.0104328
0.039818
0.00918258
0.0372184
0.00804958
0.034776
0.00705465
0.0325229
0.00619739
0.0304652
0.00546635
0.0285944
0.00484556
0.0268955
0.00431838
0.0253516
0.00386944
0.0239458
0.00348544
0.0226623
0.00315526
0.0214872
0.00286976
0.020408
0.00262149
0.019414
0.00240438
0.0184958
0.00221352
0.0176452
0.00204487
0.0168552
0.00189513
0.0161195
0.00176158
0.0154328
0.00164196
0.0147903
0.0015344
0.014188
0.00143732
0.0136221
0.0013494
0.0130894
0.00126952
0.0125871
0.00119671
0.0121126
0.00113018
0.0116637
0.00106922
0.0112382
0.00101323
0.0108344
0.000961677
0.0104506
0.000914129
0.0100853
0.000870179
0.00973722
0.000829492
0.00940505
0.000791755
0.00908768
0.000756715
0.0087841
0.000724118
0.00849337
0.00069378
0.00821461
0.000665485
0.00794704
0.000639108
0.00768992
0.000614456
0.00744257
0.000591457
0.00720435
0.000569922
0.00697467
0.000549836
0.006753
0.000530995
0.00653879
0.000513446
0.0063316
0.000496956
0.00613094
0.000481646
0.00593641
0.000467228
0.00574758
0.000453917
0.0055641
0.000441344
0.00538555
0.000429836
0.00521166
0.000418916
0.00504202
0.00040905
0.0048764
0.000399621
0.00471439
0.00039127
0.00455583
0.000383195
0.00440031
0.000376254
0.0042477
0.000369413
0.00409758
0.000363792
0.00394989
0.000358067
0.00380418
0.00035369
0.00366047
0.000348969
0.00351826
0.00034577
0.00337764
0.00034194
0.00323808
0.000339856
0.00309977
0.000336787
0.0029621
0.000335737
0.0028254
0.000333284
0.00268896
0.000333168
0.00255326
0.000331167
0.00241752
0.000331856
0.00228236
0.000330121
0.00214691
0.000331443
0.00201198
0.000329774
0.0018766
0.000331496
0.00174176
0.000329709
0.00160643
0.000331539
0.00147173
0.000329496
0.00133664
0.000331053
0.0012023
0.000328719
0.00106784
0.000329564
0.000934217
0.000327091
0.000800948
0.000326686
0.00066849
0.000324479
0.000537072
0.000322211
0.000406185
0.000320971
0.00027714
0.000316568
0.000147837
0.000317739
2.14112e-05
0.000310791
-0.000105988
0.000314085
-0.00022844
0.000301092
-0.000354263
0.000310447
-0.00047732
0.000302644
-0.000613621
0.000338722
-0.000750765
0.000340834
-0.000916098
0.00041951
-0.00107003
0.000390468
-0.00126545
0.000506153
-0.00143037
0.000433381
-0.00156712
0.000357287
-0.00168014
0.000248909
-0.00224258
0.0015127
-0.00231368
0.000385958
-0.00123531
-0.00301577
-0.00148072
0.000190993
-0.00449634
0.00804763
-0.0068688
0.00714741
-0.00571894
-0.00234113
-0.00207923
-0.00959541
0.00141505
-0.00940613
0.00351968
-0.00578923
0.00439347
-0.0024382
0.00437749
4.96501e-05
0.00409307
0.000889943
0.00466328
-0.00124704
-0.00401764
0.0528386
0.0126165
-0.0519401
0.0538677
0.0135064
0.0545525
0.0140007
0.054623
0.0140039
0.0540265
0.0136102
0.0528322
0.0129393
0.0511692
0.0120958
0.0491837
0.011168
0.0470104
0.0102229
0.0447596
0.00930541
0.0425136
0.00844343
0.0403283
0.00765164
0.0382383
0.00693554
0.0362622
0.00629453
0.0344072
0.00572438
0.0326737
0.00521896
0.0310575
0.00477143
0.0295523
0.00437498
0.0281505
0.00402327
0.0268444
0.00371055
0.0256261
0.00343177
0.0244885
0.00318251
0.0234246
0.00295897
0.0224283
0.00275789
0.0214938
0.00257646
0.0206159
0.00241228
0.0197899
0.00226328
0.0190117
0.00212769
0.0182772
0.00200397
0.0175831
0.00189081
0.0169262
0.00178706
0.0163037
0.00169171
0.015713
0.00160392
0.0151518
0.00152291
0.0146179
0.00144804
0.0141093
0.00137871
0.0136244
0.00131442
0.0131614
0.00125471
0.012719
0.00119919
0.0122956
0.00114748
0.0118901
0.0010993
0.0115013
0.00105432
0.011128
0.00101234
0.0107694
0.000973085
0.0104244
0.00093642
0.0100923
0.000902074
0.00977213
0.000869999
0.00946321
0.000839908
0.00916482
0.000811841
0.00887631
0.000785471
0.00859701
0.000760942
0.00832638
0.00073786
0.00806381
0.00071649
0.00780881
0.000696339
0.00756083
0.000677819
0.00731945
0.000660298
0.00708412
0.000644374
0.00685451
0.000629229
0.00663009
0.000615695
0.00641057
0.000602715
0.00619542
0.000591403
0.00598443
0.000580399
0.00577706
0.000571164
0.00557317
0.000561957
0.00537219
0.000554672
0.00517406
0.00054709
0.00497818
0.00054165
0.0047846
0.00053552
0.00459264
0.00053182
0.00440248
0.000526947
0.00421336
0.000524857
0.00402562
0.000521022
0.00383841
0.00052038
0.00365225
0.000517332
0.00346616
0.000517937
0.00328089
0.000515391
0.00309536
0.000516974
0.00291052
0.000514615
0.0027252
0.000516815
0.00254057
0.000514346
0.00235539
0.000516714
0.00217099
0.000513895
0.00198619
0.000515856
0.00180232
0.000512589
0.00161841
0.000513476
0.00143557
0.000509927
0.00125332
0.000508935
0.00107216
0.000505642
0.000892508
0.000501862
0.000713641
0.000499838
0.000537383
0.000492827
0.000360961
0.000494161
0.000188597
0.000483155
1.54989e-05
0.000487184
-0.00015148
0.000468071
-0.000322528
0.000481496
-0.000489653
0.000469768
-0.000673545
0.000522614
-0.00085736
0.000524649
-0.00107617
0.000638317
-0.00127823
0.000592529
-0.00153194
0.000759871
-0.00174146
0.000642899
-0.00192015
0.000535973
-0.00207872
0.000407491
-0.00277227
0.00220625
-0.00279966
0.00041331
-0.00151279
-0.00430264
-0.00198042
0.000658616
-0.00571635
0.0117836
-0.00834436
0.0097754
-0.00661008
-0.00407542
-0.00199842
-0.0142071
0.00236029
-0.0137648
0.00494493
-0.00837387
0.00601058
-0.00350385
0.00600725
5.29526e-05
0.00571384
0.00118335
0.00653727
-0.00207047
-0.00612105
0.05656
0.0119292
-0.0558727
0.057414
0.0126524
0.0582113
0.0132034
0.058739
0.0134761
0.0588751
0.0134741
0.0585738
0.0132406
0.0578445
0.0128251
0.0567348
0.0122777
0.0553133
0.0116444
0.0536551
0.0109636
0.0518336
0.0102649
0.0499141
0.00957118
0.047951
0.0088986
0.0459874
0.00825816
0.0440552
0.00765657
0.0421769
0.00709724
0.0403672
0.00658112
0.0386348
0.00610742
0.0369838
0.00567423
0.0354155
0.00527894
0.0339286
0.00491864
0.0325208
0.00459032
0.0311887
0.00429104
0.0299286
0.004018
0.0287364
0.00376862
0.0276082
0.00354053
0.0265399
0.00333161
0.0255276
0.00313994
0.0245678
0.0029638
0.0236569
0.00280167
0.0227918
0.00265219
0.0219693
0.00251415
0.0211868
0.00238648
0.0204415
0.00226821
0.019731
0.00215852
0.0190531
0.00205662
0.0184056
0.00196186
0.0177867
0.00187362
0.0171945
0.00179138
0.0166274
0.00171463
0.0160837
0.00164296
0.0155621
0.00157596
0.0150611
0.00151331
0.0145795
0.00145465
0.0141162
0.00139977
0.01367
0.00134831
0.0132398
0.00130017
0.0128247
0.00125498
0.0124238
0.00121276
0.0120362
0.00117307
0.0116611
0.00113608
0.0112977
0.00110128
0.0109452
0.00106898
0.010603
0.00103854
0.0102703
0.00101047
0.00994664
0.00098396
0.00963126
0.000959753
0.00932369
0.000936798
0.00902324
0.000916146
0.00872951
0.00089644
0.00844182
0.000879093
0.00815986
0.000862362
0.00788292
0.000848102
0.00761079
0.000834086
0.00734274
0.000822725
0.00707865
0.000811176
0.00681775
0.000802553
0.00656004
0.000793224
0.00630469
0.000787179
0.00605184
0.000779789
0.00580057
0.000776128
0.00555123
0.000770362
0.00530276
0.000768848
0.00505575
0.000764346
0.00480901
0.000764677
0.00456338
0.000761023
0.00431755
0.000762804
0.00407263
0.000759533
0.00382721
0.000762235
0.00358266
0.000758898
0.00333751
0.00076186
0.00309333
0.000758076
0.00284873
0.000760464
0.00260528
0.000756036
0.00236188
0.000756879
0.00211984
0.000751967
0.00187867
0.000750101
0.00163893
0.000745385
0.00140129
0.000739502
0.00116476
0.000736365
0.000931812
0.000725777
0.000698889
0.000727086
0.00047153
0.000710515
0.000243155
0.00071556
2.36235e-05
0.000687603
-0.000201244
0.000706364
-0.000420624
0.000689149
-0.000660336
0.000762327
-0.000898073
0.000762385
-0.00117766
0.00091791
-0.00143331
0.000848175
-0.00175113
0.0010777
-0.00200751
0.000899273
-0.00223346
0.000761927
-0.00244167
0.000615706
-0.0032604
0.00302498
-0.00322791
0.000380889
-0.00176128
-0.00576926
-0.00249457
0.00139191
-0.00690556
0.0161946
-0.00963276
0.0125026
-0.00718689
-0.0065213
-0.001577
-0.0198169
0.00365896
-0.0190008
0.00672031
-0.0114352
0.00797829
-0.00476182
0.00800604
2.52483e-05
0.0077363
0.00145309
0.00886161
-0.00319579
-0.00880125
0.0605665
0.0113657
-0.0600031
0.0612514
0.0119676
0.0619666
0.0124881
0.0625894
0.0128533
0.0630223
0.0130412
0.0632014
0.0130615
0.0630912
0.0129354
0.0626812
0.0126877
0.0619816
0.012344
0.0610171
0.0119281
0.0598221
0.01146
0.058436
0.0109572
0.0569001
0.0104345
0.0552544
0.00990387
0.0535357
0.00937529
0.0517763
0.00885661
0.0500036
0.00835387
0.0482395
0.00787147
0.0465014
0.00741238
0.044802
0.00697834
0.0431505
0.00657013
0.0415531
0.00618774
0.0400135
0.00583062
0.0385337
0.00549781
0.0371142
0.0051881
0.0357546
0.00490016
0.0344536
0.00463257
0.0332096
0.00438392
0.0320206
0.00415283
0.0308843
0.00393798
0.0297984
0.00373812
0.0287604
0.00355209
0.0277681
0.0033788
0.026819
0.00321727
0.025911
0.00306658
0.0250417
0.00292589
0.0242091
0.00279445
0.0234112
0.00267154
0.022646
0.00255655
0.0219118
0.00244886
0.0212067
0.002348
0.0205293
0.00225342
0.0198778
0.00216477
0.0192509
0.00208155
0.0186472
0.00200352
0.0180653
0.00193021
0.017504
0.00186149
0.0169621
0.00179687
0.0164384
0.00173638
0.0159321
0.00167945
0.0154419
0.00162628
0.0149669
0.00157621
0.0145063
0.00152963
0.0140591
0.00148573
0.0136244
0.00144512
0.0132016
0.00140679
0.0127897
0.00137165
0.0123881
0.00133837
0.011996
0.00130828
0.0116128
0.00127965
0.0112376
0.00125425
0.0108701
0.00122989
0.0105093
0.00120888
0.010155
0.00118843
0.00980617
0.00117155
0.00946268
0.00115467
0.00912355
0.00114169
0.00878873
0.00112804
0.00845718
0.00111874
0.00812904
0.00110793
0.00780314
0.00110203
0.00747987
0.00109363
0.00715792
0.0010908
0.00683795
0.00108432
0.0065185
0.00108413
0.00620054
0.00107898
0.00588248
0.00108087
0.00556561
0.00107641
0.00524821
0.00107963
0.00493191
0.0010752
0.00461495
0.00107882
0.00429918
0.00107385
0.00398294
0.0010767
0.00366812
0.00107085
0.00335344
0.00107156
0.00304046
0.00106495
0.0027287
0.00106187
0.00241876
0.00105532
0.00211165
0.00104662
0.00180607
0.00104195
0.00150527
0.00102657
0.00120481
0.00102755
0.000911803
0.00100352
0.000617825
0.00100954
0.000335449
0.00096998
4.70734e-05
0.00099474
-0.000234241
0.000970464
-0.000538974
0.00106706
-0.000838668
0.00106208
-0.00118684
0.00126608
-0.0015017
0.00116304
-0.00188937
0.00146536
-0.00219449
0.00120439
-0.00247292
0.00104036
-0.00273198
0.000874769
-0.00366641
0.00395941
-0.00356192
0.000276127
-0.00194872
-0.00738246
-0.00297179
0.00241501
-0.00797572
0.0211985
-0.0106232
0.01515
-0.00734076
-0.00980375
-0.000727102
-0.0264306
0.00539109
-0.0251189
0.00892433
-0.0149684
0.0103764
-0.00621386
0.0104604
-5.88542e-05
0.0102527
0.0016608
0.0117275
-0.00467061
-0.0121169
0.0648521
0.0108809
-0.0643673
0.0654179
0.0114018
0.066026
0.01188
0.0666115
0.0122679
0.0671115
0.0125412
0.0674777
0.0126953
0.0676746
0.0127384
0.0676785
0.0126838
0.067476
0.0125464
0.0670633
0.0123408
0.0664438
0.0120795
0.0656281
0.0117729
0.0646319
0.0114306
0.0634752
0.0110606
0.0621805
0.01067
0.0607719
0.0102653
0.0592736
0.00985221
0.0577089
0.00943612
0.0560996
0.00902164
0.0544652
0.00861282
0.0528223
0.00821301
0.0511851
0.00782487
0.0495653
0.00745045
0.047972
0.00709116
0.0464121
0.00674794
0.044891
0.00642124
0.0434124
0.00611118
0.0419787
0.00581761
0.0405914
0.00554015
0.0392511
0.0052783
0.0379578
0.00503142
0.036711
0.00479884
0.03551
0.00457986
0.0343535
0.00437373
0.0332403
0.00417975
0.032169
0.0039972
0.031138
0.00382544
0.0301458
0.00366379
0.0291907
0.00351167
0.0282711
0.00336845
0.0273854
0.00323366
0.0265321
0.0031067
0.0257097
0.00298722
0.0249166
0.00287464
0.0241514
0.00276872
0.0234127
0.00266889
0.0226992
0.00257504
0.0220095
0.00248656
0.0213424
0.0024035
0.0206966
0.00232518
0.0200711
0.00225183
0.0194647
0.00218265
0.0188762
0.00211811
0.0183047
0.00205721
0.0177491
0.00200073
0.0172085
0.00194737
0.0166819
0.00189828
0.0161684
0.00185182
0.0156671
0.0018096
0.0151772
0.0017695
0.0146978
0.0017337
0.0142282
0.00169947
0.0137674
0.00166969
0.0133149
0.00164087
0.0128697
0.00161676
0.0124315
0.00159291
0.011999
0.00157418
0.0115722
0.00155485
0.0111497
0.00154118
0.0107318
0.00152586
0.0103169
0.00151691
0.00990552
0.00150503
0.00949599
0.00150033
0.00908908
0.00149123
0.008683
0.0014902
0.00827889
0.0014831
0.00787477
0.00148499
0.00747218
0.00147899
0.00706904
0.00148278
0.00666726
0.00147698
0.0062647
0.00148138
0.00586359
0.00147496
0.00546194
0.00147835
0.00506201
0.00147079
0.0046623
0.00147127
0.00426465
0.00146259
0.00386862
0.0014579
0.00347487
0.00144906
0.00308482
0.00143667
0.00269681
0.00142996
0.00231508
0.00140829
0.00193412
0.00140851
0.00156298
0.00137467
0.00119105
0.00138147
0.00083408
0.00132695
0.000469589
0.00135923
0.000116609
0.00132344
-0.000263216
0.00144689
-0.000633976
0.00143284
-0.00105891
0.00169102
-0.0014388
0.00154293
-0.00190182
0.00192838
-0.00225709
0.00155967
-0.00259257
0.00137584
-0.00290013
0.00118233
-0.0039378
0.00499709
-0.00375308
9.15975e-05
-0.00202703
-0.0091085
-0.0033387
0.00372669
-0.00881477
0.0266746
-0.0111881
0.0175234
-0.00694833
-0.0140435
0.00066071
-0.0340396
0.00765363
-0.0321118
0.0116542
-0.018969
0.0133033
-0.00786292
0.0134753
-0.000230775
0.0133732
0.0017629
0.0152426
-0.00654006
-0.0161189
0.0694255
0.0104531
-0.0689977
0.0699093
0.0109179
0.0704303
0.011359
0.0709527
0.0117455
0.0714369
0.012057
0.071849
0.0122832
0.0721631
0.0124243
0.0723598
0.0124871
0.072425
0.0124812
0.0723488
0.012417
0.0721243
0.012304
0.0717478
0.0121495
0.0712185
0.0119599
0.0705389
0.0117402
0.0697144
0.0114945
0.0687535
0.0112262
0.0676672
0.0109385
0.066469
0.0106344
0.0651736
0.010317
0.0637969
0.0099895
0.0623549
0.00965503
0.0608631
0.00931666
0.0593362
0.00897731
0.0577877
0.00863966
0.0562296
0.00830607
0.0546723
0.00797858
0.0531246
0.00765884
0.051594
0.0073482
0.0500865
0.00704765
0.0486069
0.00675792
0.0471588
0.00647946
0.0457451
0.00621253
0.0443678
0.00595722
0.043028
0.00571346
0.0417267
0.0054811
0.040464
0.00525988
0.0392399
0.00504951
0.0380541
0.00484962
0.0369059
0.00465987
0.0357945
0.0044798
0.0347191
0.00430909
0.0336786
0.00414726
0.0326718
0.00399401
0.0316976
0.00384883
0.0307548
0.00371154
0.0298421
0.00358154
0.0289584
0.00345879
0.0281023
0.00334262
0.0272727
0.00323314
0.0264683
0.00312957
0.0256879
0.00303224
0.0249303
0.0029402
0.0241944
0.00285406
0.023479
0.00277259
0.0227829
0.00269678
0.0221053
0.00262505
0.0214447
0.00255884
0.0208004
0.00249611
0.0201711
0.00243888
0.0195561
0.00238451
0.0189541
0.00233573
0.0183644
0.00228914
0.0177858
0.00224833
0.0172177
0.00220896
0.0166588
0.00217569
0.0161087
0.002143
0.0155659
0.00211691
0.0150305
0.00209033
0.0145006
0.00207105
0.0139765
0.00204994
0.0134564
0.00203699
0.0129408
0.00202063
0.0124277
0.00201343
0.011918
0.00200096
0.0114094
0.00199876
0.0109034
0.00198916
0.0103974
0.00199096
0.00989337
0.00198304
0.00938868
0.00198747
0.00888564
0.00198002
0.00838165
0.00198537
0.00787936
0.00197725
0.00737637
0.00198134
0.00687541
0.00197175
0.0063747
0.00197198
0.00587645
0.00196084
0.00538023
0.00195413
0.00488682
0.00194247
0.0043981
0.00192539
0.00391204
0.00191603
0.00343407
0.00188626
0.00295747
0.00188511
0.00249356
0.00183858
0.00202925
0.00184578
0.00158402
0.00177218
0.00113031
0.00181294
0.000693385
0.00176037
0.000226453
0.00191382
-0.000225316
0.00188461
-0.000735116
0.00220082
-0.00118618
0.00199399
-0.00172958
0.00247179
-0.00213584
0.00196592
-0.00253154
0.00177155
-0.00288123
0.00153202
-0.00400697
0.00612283
-0.00373701
-0.000178652
-0.00192744
-0.0109181
-0.00349675
0.00529603
-0.00928522
0.032463
-0.0111837
0.0194218
-0.00587081
-0.0193565
0.00271438
-0.0426248
0.010564
-0.0399614
0.0150297
-0.0234347
0.0168796
-0.00971285
0.0171763
-0.00052748
0.0172279
0.00171129
0.0195337
-0.00884583
-0.0208471
0.0743063
0.0100699
-0.0739231
0.0747309
0.0104933
0.075186
0.0109039
0.0756506
0.0112808
0.0760991
0.0116085
0.0765068
0.0118755
0.0768539
0.0120772
0.0771258
0.0122152
0.0773122
0.0122948
0.0774057
0.0123235
0.0774006
0.0123091
0.0772917
0.0122583
0.0770749
0.0121767
0.0767462
0.0120689
0.0763025
0.0119382
0.075742
0.0117867
0.0750644
0.0116161
0.0742715
0.0114273
0.0733671
0.0112214
0.0723572
0.0109993
0.0712498
0.0107624
0.0700543
0.0105122
0.0687813
0.0102503
0.067442
0.00997888
0.0660482
0.00969991
0.0646112
0.00941561
0.0631419
0.00912809
0.0616507
0.0088394
0.060147
0.00855142
0.058639
0.00826584
0.0571343
0.00798415
0.0556393
0.0077076
0.0541592
0.00743726
0.0526987
0.00717394
0.0512615
0.00691833
0.0498505
0.00667091
0.0484679
0.00643204
0.0471157
0.0062019
0.0457948
0.00598068
0.0445063
0.00576833
0.0432505
0.00556489
0.0420276
0.00537017
0.0408375
0.00518416
0.0396798
0.00500652
0.038554
0.00483727
0.0374596
0.00467594
0.0363958
0.00452265
0.0353617
0.00437674
0.0343563
0.0042385
0.0333788
0.00410708
0.032428
0.00398301
0.031503
0.00386519
0.0306026
0.00375446
0.0297258
0.00364939
0.0288714
0.00355123
0.0280383
0.00345809
0.0272254
0.00337179
0.0264317
0.00328985
0.0256557
0.00321479
0.0248969
0.0031434
0.0241536
0.00307903
0.0234251
0.00301755
0.0227101
0.00296337
0.0220079
0.00291119
0.0213168
0.00286674
0.0206366
0.00282322
0.0199654
0.00278808
0.0193032
0.00275257
0.0186479
0.00272631
0.0179998
0.00269803
0.0173567
0.00268009
0.0167192
0.00265816
0.0160848
0.00264783
0.0154546
0.00263117
0.0148259
0.00262749
0.0142002
0.00261481
0.0135747
0.00261649
0.0129514
0.00260627
0.0123274
0.00261155
0.0117052
0.00260217
0.0110818
0.00260879
0.0104603
0.00259875
0.0098378
0.00260382
0.00921759
0.00259196
0.00859757
0.002592
0.00798039
0.00257802
0.00736562
0.0025689
0.0067542
0.00255389
0.0061486
0.002531
0.00554633
0.00251829
0.00495432
0.00247827
0.00436443
0.00247501
0.00379075
0.00241226
0.00321724
0.00241929
0.00266789
0.00232153
0.00210949
0.00237134
0.00157466
0.00229521
0.00100652
0.00248196
0.00046502
0.00242611
-0.000138055
0.00280389
-0.000668201
0.00252414
-0.00129595
0.00309953
-0.00175347
0.00242345
-0.00221021
0.0022283
-0.00259155
0.00191336
-0.00378797
0.00731926
-0.00342748
-0.000538741
-0.00155515
-0.0127904
-0.00332
0.0070609
-0.00922291
0.0383659
-0.0104504