/*--------------------------------*- C++ -*----------------------------------*\
| =========                 |                                                 |
| \\      /  F ield         | OpenFOAM: The Open Source CFD Toolbox           |
|  \\    /   O peration     | Version:  2412                                  |
|   \\  /    A nd           | Website:  www.openfoam.com                      |
|    \\/     M anipulation  |                                                 |
\*---------------------------------------------------------------------------*/
FoamFile
{
    version     2.0;
    format      ascii;
    arch        "LSB;label=32;scalar=64";
    class       volVectorField;
    location    "0.73";
    object      ddt0(U);
}
// * * * * * * * * * * * * * * * * * * * * * * * * * * * * * * * * * * * * * //

dimensions      [0 1 -2 0 0 0 0];

internalField   nonuniform List<vector> 
12600
(
(-21.2371 0 -30.8266)
(-52.9829 5.47752e-17 -7.5474)
(-22.8974 4.79486e-17 -1.81134)
(-6.73271 0 0.428573)
(4.31396 3.99868e-19 2.34629)
(12.4089 0 4.55531)
(18.6378 -3.95495e-17 7.06039)
(22.4597 0 9.58619)
(22.8216 0 11.6979)
(21.8996 0 12.961)
(11.9822 0 5.45096)
(1.79709 -3.02373e-17 2.33955)
(-2.46825 -2.99766e-17 2.24621)
(-3.01128 0 2.99241)
(-4.41688 -1.65798e-16 1.71103)
(-7.28868 0 -1.16694)
(-7.74212 -2.20454e-17 -2.78778)
(-3.34559 0 -1.45002)
(3.86332 1.03666e-16 1.56167)
(6.71396 0 3.64816)
(3.70674 0 6.40756)
(30.2885 0 22.5623)
(48.1323 -1.21487e-15 12.487)
(30.1139 1.10144e-15 -22.1034)
(18.3745 1.49272e-16 -57.4809)
(-121.174 4.21841e-17 -111.883)
(-105.86 0 -6.82502)
(33.5097 0 49.9841)
(39.8219 0 29.5493)
(-1.49973 -1.12131e-16 2.28265)
(-7.95997 -8.26146e-17 -2.72008)
(-0.139413 0 -0.119724)
(-4.73578 0 -2.45174)
(-10.473 -5.9739e-18 -4.95892)
(-9.21198 -1.25955e-17 -3.74822)
(-6.06818 0 -1.34795)
(-4.38402 0 0.197599)
(-3.85616 -8.72389e-17 0.977565)
(-2.64608 0 1.9149)
(0.478033 6.30699e-18 3.57472)
(5.08117 2.53947e-17 6.12191)
(9.02438 1.03335e-16 7.92462)
(11.2663 0 8.38907)
(12.0895 2.06075e-16 8.00859)
(11.6133 2.50887e-16 6.98422)
(9.82518 -5.8417e-16 5.49886)
(6.85979 6.26895e-16 3.63043)
(3.2152 0 1.66114)
(-0.496643 -4.89278e-16 -0.126717)
(-3.77219 3.22688e-16 -1.53011)
(-6.2906 0 -2.48225)
(-7.88097 5.04674e-18 -3.00189)
(-8.46722 2.31795e-16 -3.13139)
(-8.05017 0 -2.90906)
(-6.70081 -9.49582e-16 -2.18703)
(-4.47928 0 -1.02059)
(-1.86117 0 -0.395516)
(0.427351 -5.9415e-20 -0.610503)
(2.96552 1.63382e-18 -0.209375)
(5.46961 4.06194e-16 0.0496052)
(7.42113 -1.54348e-16 0.1296)
(8.35454 -1.25295e-16 0.0953027)
(8.328 0 0.0124859)
(7.37188 -5.12858e-16 -0.0484262)
(4.72216 -4.24977e-16 -0.0563885)
(0.929705 1.7422e-16 0.263936)
(-3.33642 3.73212e-16 -1.45421)
(-9.33661 0 -4.86413)
(-13.9208 0 -4.43489)
(0.558233 0 2.29184)
(-18.0567 0 -11.7563)
(-27.0274 0 -6.4204)
(-9.17737 -3.82868e-15 1.71124)
(-2.52686 3.18738e-15 3.89452)
(0.385544 0 3.03797)
(2.11257 0 2.45046)
(3.52678 -6.99646e-16 3.2098)
(9.15527 -3.35454e-17 8.67269)
(4.64239 -4.13186e-15 -0.703335)
(3.84219 0 -5.4516)
(5.95163 0 -6.9171)
(3.76466 0 -7.2018)
(6.03109 4.54595e-20 -5.82205)
(10.1099 0 -8.02701)
(-6.5324 0 -3.04909)
(-21.083 4.92342e-15 11.8649)
(-19.785 -1.38791e-18 15.073)
(21.4852 0 -8.89741)
(83.5016 0 -44.8236)
(-150.373 -7.30998e-15 90.0698)
(-6.47297 -1.30729e-15 5.14912)
(42.569 -3.71144e-15 -24.6263)
(-20.0235 -2.04732e-15 11.3614)
(9.68958 -9.88637e-18 -5.94903)
(-11.39 -7.0897e-18 4.55921)
(-6.01093 -1.26543e-15 2.0693)
(-4.3099 0 1.92762)
(-4.961 0 0.697855)
(5.79658 0 -4.77593)
(20.9931 -9.40421e-15 -12.7165)
(27.8095 2.94056e-15 -15.9685)
(25.4891 -2.52376e-15 -12.7392)
(11.8614 -1.22363e-15 -6.31212)
(-3.37397 0 3.46725)
(-10.7403 0 6.80608)
(-12.2653 0 8.08898)
(-7.13486 5.66347e-15 4.44535)
(-7.16103 0 4.21423)
(-10.3613 -5.9631e-15 5.6715)
(-5.25804 0 2.57858)
(-5.85224 0 2.85772)
(-4.76726 4.59738e-15 2.30454)
(-1.69163 0 0.729564)
(-0.587838 0 0.327194)
(2.44414 0 -1.22595)
(5.26203 4.3345e-15 -2.6567)
(2.06742 0 -0.697802)
(-1.39639 -8.55209e-15 1.16383)
(-1.80605 0 1.16744)
(-0.97454 -2.57349e-19 0.506772)
(-35.4048 -1.5594e-17 -47.1864)
(-36.9298 -3.87752e-17 -12.5668)
(-17.5009 8.6718e-19 -1.77637)
(-2.55679 0 2.64911)
(9.07508 -5.89427e-17 5.35975)
(17.888 5.27571e-17 7.88937)
(24.6227 4.12565e-17 10.9329)
(28.3924 -1.14338e-17 14.1118)
(27.7009 0 16.2178)
(20.7775 0 15.8466)
(7.88894 0 7.11833)
(0.713338 0 3.30559)
(-1.96515 0 3.27078)
(-3.29981 0 3.79148)
(-6.94078 -4.83551e-18 1.3401)
(-10.4978 0 -2.53978)
(-8.83632 -1.02034e-17 -3.41425)
(-1.12913 0 0.521818)
(7.88577 -1.94042e-16 5.87536)
(10.9222 -1.61725e-17 8.16271)
(12.0943 0 10.8867)
(40.0852 -4.17102e-16 37.4532)
(34.9387 5.99577e-16 14.0649)
(-13.2266 -5.02157e-16 -61.7308)
(-54.3714 2.49731e-16 -142.318)
(-178.327 0 -234.719)
(-44.141 6.41294e-16 29.0961)
(68.8563 0 97.7774)
(36.2947 0 45.6991)
(-10.5234 0 1.53981)
(-10.5908 3.77555e-17 -4.82575)
(-1.53824 0 -1.52269)
(-7.68023 0 -4.76457)
(-12.8382 0 -7.45976)
(-10.0647 0 -5.12313)
(-6.36425 0 -1.53052)
(-4.93897 0 0.469971)
(-4.67165 8.97589e-17 1.32756)
(-3.2839 0 2.61162)
(0.317525 1.09723e-16 4.90472)
(5.19112 -6.37717e-17 8.07214)
(8.95318 -1.20109e-16 10.2062)
(10.9007 0 10.7114)
(11.5051 0 10.2247)
(10.8599 -5.16177e-16 8.97422)
(8.93923 5.96476e-16 7.14766)
(5.87687 -6.39832e-16 4.83018)
(2.22144 0 2.37981)
(-1.40382 4.85027e-16 0.15558)
(-4.51427 0 -1.59752)
(-6.82458 0 -2.80766)
(-8.18658 -6.45244e-17 -3.50001)
(-8.52996 0 -3.72788)
(-7.83565 0 -3.54565)
(-6.11056 9.59413e-16 -2.7601)
(-3.47956 0 -1.41611)
(-0.780492 0 -0.98261)
(1.73361 9.19453e-19 -1.49556)
(4.85476 6.5817e-16 -1.18642)
(7.89802 -3.55794e-18 -1.12277)
(10.368 0 -1.27922)
(11.6891 1.29561e-16 -1.48874)
(11.6821 4.18907e-16 -1.5819)
(10.1563 0 -1.35236)
(6.08157 8.45171e-16 -0.570997)
(-0.285468 -2.1089e-18 1.0807)
(-8.24623 0 0.63859)
(-19.5905 7.29666e-16 -4.26209)
(-26.2158 0 -1.02741)
(-14.19 0 8.93478)
(-49.4245 0 -29.6698)
(-45.2244 0 -3.25319)
(-23.6002 7.52578e-15 9.3661)
(-15.028 -3.10048e-15 11.3234)
(-9.16929 0 8.55135)
(-3.4411 0 5.90843)
(3.12687 -7.64709e-16 4.50517)
(19.9374 -7.77046e-17 17.7118)
(14.5561 -1.21957e-17 -6.73736)
(20.7182 0 -16.0449)
(28.5398 0 -20.5803)
(26.747 0 -20.7488)
(28.5688 4.33618e-19 -19.0214)
(37.2802 -2.13418e-15 -23.8535)
(-3.62178 2.24896e-15 -3.74331)
(-66.9242 -4.75707e-15 39.8791)
(-73.9069 -6.69459e-19 45.5497)
(43.0087 -2.30592e-15 -26.4673)
(247.776 0 -134.657)
(-484.219 7.02617e-15 288.823)
(-23.8945 0 7.51738)
(127.48 3.55856e-15 -73.8528)
(-56.2459 0 34.2777)
(31.3513 -2.08434e-15 -19.1842)
(-32.349 -2.14608e-16 17.0198)
(-13.2044 0 5.95762)
(-12.3521 0 6.43072)
(-9.49035 5.77037e-15 2.50172)
(24.7558 -4.22259e-15 -16.4616)
(71.6279 8.93063e-15 -42.5817)
(87.178 -2.79275e-15 -50.6936)
(72.2591 2.39477e-15 -39.649)
(29.6373 0 -16.0523)
(-20.6646 -4.84403e-16 12.7636)
(-39.4085 0 23.7745)
(-40.9495 0 24.7539)
(-22.0024 -5.3766e-15 13.005)
(-19.6348 0 11.7634)
(-30.3217 -9.84187e-19 17.279)
(-14.8486 6.03311e-15 8.00018)
(-16.3482 0 8.94588)
(-13.2587 0 7.15048)
(-3.9244 0 1.96141)
(-0.6098 1.14745e-15 0.345706)
(8.39876 1.2011e-15 -4.75343)
(14.6364 -4.07482e-15 -8.1259)
(3.66065 0 -1.5528)
(-5.71619 8.03256e-15 3.76757)
(-5.91627 0 3.53832)
(-2.79488 -1.65263e-14 1.53472)
(-21.5032 3.344e-17 -22.1175)
(-20.3371 -2.17721e-17 -5.57854)
(-7.61413 -9.61155e-17 2.41006)
(3.79133 0 5.87998)
(12.6886 -5.36698e-17 7.01113)
(19.6261 -3.13169e-18 7.18469)
(24.6411 0 7.35154)
(26.1619 1.08519e-17 7.54833)
(22.5261 0 7.06029)
(13.5775 -1.87529e-18 4.60914)
(5.23854 0 3.14042)
(0.201019 0 2.04955)
(-2.59019 0 1.48075)
(-5.5238 0 0.231978)
(-9.36947 8.92061e-17 -1.9117)
(-10.4185 0 -2.67712)
(-5.41712 0 -0.0469307)
(3.47369 0 5.09726)
(10.46 8.17592e-17 8.61742)
(10.8145 -4.79972e-17 7.77344)
(11.5923 0 3.90623)
(22.8169 5.38002e-17 8.93131)
(5.10038 0 -7.95784)
(-37.3139 -8.82947e-17 -57.5398)
(-71.5645 0 -129.094)
(-114.536 0 -181.395)
(45.4302 -6.08284e-16 103.38)
(51.7528 0 77.5883)
(8.58572 0 19.4121)
(-17.9414 7.36557e-17 -3.08838)
(-10.2573 0 -3.38441)
(-2.81159 0 -3.03274)
(-7.86047 0 -4.01604)
(-10.8021 0 -3.53669)
(-7.97404 8.04216e-18 -1.50824)
(-5.4149 0 0.397133)
(-5.05104 0 0.994506)
(-5.33893 -9.14311e-17 0.999458)
(-4.3088 0 1.55758)
(-1.41713 -9.13315e-17 2.58756)
(2.04912 -4.07347e-18 3.42442)
(4.67959 1.13713e-16 3.75516)
(6.23856 0 3.68008)
(6.96385 0 3.426)
(6.79903 2.45786e-16 2.9951)
(5.62218 0 2.41552)
(3.53918 6.05254e-16 1.71056)
(0.967872 0 0.997154)
(-1.62205 -3.70212e-18 0.378221)
(-3.8695 0 -0.105106)
(-5.54125 0 -0.469271)
(-6.4827 0 -0.737459)
(-6.59906 -2.32322e-16 -0.939805)
(-5.84889 0 -1.12263)
(-4.30527 0 -1.24558)
(-2.05048 0 -1.20121)
(0.650124 0 -1.47757)
(3.61646 1.63874e-15 -2.17026)
(6.94053 0 -2.6105)
(10.2266 -2.44145e-18 -3.19448)
(12.9797 0 -3.78109)
(14.4874 -6.22931e-17 -4.13619)
(14.347 -3.94968e-16 -4.01695)
(12.1791 0 -3.11817)
(6.75134 -7.93689e-16 -0.986603)
(-1.92354 -7.88495e-17 2.4196)
(-11.9511 0 5.94734)
(-26.7541 -6.87166e-16 2.53315)
(-33.9024 0 11.0938)
(-29.5137 0 16.2343)
(-74.7419 0 -39.1053)
(-54.2634 0 11.7281)
(-35.6484 -1.99504e-18 18.4157)
(-26.2261 2.91574e-15 16.9478)
(-17.2234 0 12.1512)
(-7.92198 0 7.12939)
(2.74826 -1.65875e-17 1.64728)
(22.1276 3.14246e-15 8.7823)
(23.8024 1.9091e-15 -15.6326)
(38.1317 0 -25.5979)
(50.3394 0 -32.3424)
(48.002 0 -31.449)
(48.2392 9.76467e-16 -30.562)
(64.3436 -1.37963e-17 -37.4292)
(7.11961 -2.10972e-15 -1.20857)
(-109.466 0 67.9674)
(-124.621 -3.31218e-15 70.5467)
(43.0214 2.16181e-15 -36.1767)
(393.217 0 -200.66)
(-794.339 0 472.79)
(-39.1034 1.07466e-15 -6.2813)
(201.973 0 -113.073)
(-83.6346 1.81668e-15 51.1047)
(51.7762 -9.19507e-19 -31.8554)
(-53.0751 1.89332e-16 31.0082)
(-17.8939 1.14675e-15 8.10306)
(-19.9175 0 10.7011)
(-11.2345 -5.40015e-15 3.74708)
(47.5249 3.95107e-15 -31.1981)
(123.74 -8.34806e-15 -73.7831)
(142.568 0 -82.0074)
(110.272 2.23266e-15 -59.2556)
(38.9651 0 -18.681)
(-41.8074 4.52954e-16 28.2133)
(-68.3552 9.04262e-16 41.429)
(-67.0761 0 38.603)
(-33.8924 5.02581e-15 18.8986)
(-29.0178 0 16.9509)
(-48.0491 1.05206e-14 27.0452)
(-23.4617 -5.63775e-15 12.5802)
(-25.8716 0 14.3088)
(-20.9235 0 11.2461)
(-5.52011 0 2.55282)
(0.492789 -5.50274e-18 -0.647829)
(15.069 -1.12192e-15 -9.05139)
(22.6721 3.81657e-15 -12.5512)
(4.04164 0 -1.24165)
(-9.98867 7.514e-15 6.33954)
(-9.67395 0 5.56089)
(-4.42424 8.71772e-19 2.36719)
(-12.2555 -1.7669e-17 -6.67325)
(-8.95826 -1.38162e-19 1.29213)
(1.17096 4.53934e-17 6.42012)
(9.77028 -4.66333e-17 8.50989)
(16.5317 -4.32619e-17 8.93052)
(21.9686 -8.45253e-17 8.39606)
(25.6659 0 7.31086)
(25.9481 0 5.91875)
(21.457 0 4.5562)
(13.205 1.77644e-18 3.22582)
(5.70313 0 2.97303)
(0.541585 0 2.23528)
(-3.22039 0 0.677859)
(-6.96644 0 -1.58931)
(-10.0379 0 -3.29795)
(-8.86904 3.40557e-17 -2.31262)
(-2.14057 2.73018e-17 1.71513)
(6.1225 0 6.41803)
(10.3719 0 7.87104)
(7.63407 6.00019e-17 5.13372)
(3.72047 -1.86778e-16 -4.20303)
(4.79622 3.23892e-16 -17.0702)
(-7.17363 -1.045e-16 -22.4494)
(-28.9202 8.36166e-17 -23.7157)
(-33.3936 -3.08055e-16 -39.9238)
(-3.27212 1.44752e-16 -45.1033)
(69.8013 0 98.7552)
(17.0657 1.48276e-16 48.4394)
(-14.0104 0 -4.06881)
(-21.6111 -6.97142e-17 -7.05281)
(-9.57535 0 -2.39796)
(-3.09855 0 -3.15616)
(-7.31434 0 -3.04885)
(-9.35885 -7.02531e-18 -1.36717)
(-6.70422 -7.60756e-18 0.407217)
(-4.71499 0 1.67601)
(-4.79457 0 1.85166)
(-5.20382 8.6459e-17 1.67502)
(-4.20229 0 2.05241)
(-1.50537 2.94234e-18 2.75301)
(1.56577 3.76077e-17 3.02913)
(3.86643 0 2.8666)
(5.26481 0 2.50901)
(5.95648 0 2.14631)
(5.85713 0 1.76135)
(4.81267 5.34739e-16 1.32658)
(2.93803 0 0.868711)
(0.633616 -5.31235e-16 0.46921)
(-1.66937 -4.29517e-16 0.173741)
(-3.64261 0 -0.0288837)
(-5.07151 0 -0.192959)
(-5.80411 0 -0.359333)
(-5.7404 2.19186e-16 -0.566031)
(-4.83333 -3.44415e-16 -0.871351)
(-3.16032 -8.56798e-16 -1.27726)
(-0.818581 0 -1.70154)
(2.15141 -8.95351e-16 -2.18931)
(5.46744 -1.539e-15 -3.07645)
(9.04698 0 -3.97179)
(12.6081 -7.1162e-16 -4.92738)
(15.5994 0 -5.74262)
(17.188 6.08772e-17 -6.10491)
(16.7863 3.73731e-16 -5.67939)
(13.8554 0 -4.0826)
(6.9491 3.73017e-16 -0.75175)
(-3.9923 7.32685e-17 4.28064)
(-17.1181 0 9.81675)
(-37.388 0 3.47944)
(-43.318 0 19.6139)
(-44.9169 1.46189e-15 23.1684)
(-92.8254 1.00282e-15 -38.8076)
(-63.2679 0 22.3193)
(-46.7986 -3.3179e-15 25.1438)
(-35.3127 -2.72565e-15 21.6713)
(-23.2594 0 14.7787)
(-10.5015 0 7.6357)
(4.26259 6.90313e-16 -0.542386)
(21.7817 2.96967e-17 -6.71585)
(34.4936 0 -23.4566)
(54.3432 0 -35.7089)
(69.7162 0 -43.731)
(65.7968 0 -41.3337)
(65.4205 2.03802e-18 -39.8557)
(89.8382 1.89047e-15 -50.6388)
(20.3896 0 -1.55351)
(-149.686 0 95.6311)
(-169.637 0 92.6777)
(16.6516 2.0239e-15 -36.2734)
(499.093 0 -243.273)
(-1058.2 6.14773e-15 637.413)
(-45.9505 -1.00635e-15 -33.1241)
(265.805 3.14351e-15 -147.684)
(-98.366 -1.70069e-15 66.4434)
(69.9531 1.82542e-15 -43.4633)
(-73.2913 -1.7719e-16 44.7307)
(-20.7608 -1.07305e-15 8.9688)
(-26.3281 0 14.2437)
(-10.7366 0 1.51665)
(73.674 3.69858e-15 -49.2598)
(175.602 3.90264e-15 -105.868)
(191.211 2.43042e-15 -109.648)
(137.066 -4.00624e-18 -71.1786)
(38.2012 0 -15.1222)
(-68.8389 0 42.9139)
(-95.616 -8.45223e-16 57.4122)
(-87.9828 0 49.6904)
(-41.3538 -4.70321e-15 22.2957)
(-35.4475 0 21.128)
(-63.2769 -1.0129e-18 35.7077)
(-30.9779 0 16.4445)
(-34.4631 -4.26721e-15 19.2664)
(-27.6677 3.77356e-15 14.7625)
(-6.4403 2.31106e-15 2.67077)
(2.80287 -3.29079e-18 -2.30891)
(22.1973 0 -13.5736)
(29.0355 -3.56419e-15 -16.0211)
(3.20107 -5.91418e-15 -0.41353)
(-13.9673 -7.01632e-15 8.84696)
(-13.0047 0 7.38355)
(-5.84347 1.24227e-18 3.07235)
(-6.31916 0 2.78186)
(-1.02802 1.17843e-18 7.26174)
(7.50992 0 10.1231)
(14.1331 4.40594e-17 10.9909)
(19.3607 8.88514e-17 10.668)
(23.684 3.78929e-17 9.67168)
(26.5357 0 8.1716)
(26.2854 0 6.23646)
(21.685 5.21158e-18 4.29789)
(13.936 1.49328e-18 3.03908)
(6.41716 7.1837e-18 2.6816)
(0.692427 1.64484e-17 1.95814)
(-3.67228 -8.33894e-18 0.32269)
(-7.309 0 -1.78879)
(-9.14975 0 -2.9292)
(-6.48665 -6.02999e-17 -1.55905)
(0.459651 -8.78235e-18 1.93091)
(6.88382 0 5.0492)
(8.54375 -2.69349e-17 4.92874)
(3.48127 3.73606e-17 2.20247)
(-2.37778 1.76581e-16 -6.5618)
(0.327578 0 -19.0728)
(-4.74043 9.87779e-17 -21.8659)
(-12.2464 1.02056e-16 -5.49672)
(7.90716 2.91171e-16 20.1127)
(49.8549 -1.62745e-16 31.6424)
(32.088 0 30.1943)
(-15.5888 1.19198e-16 12.0132)
(-35.4915 0 -29.7669)
(-23.1087 -1.12172e-16 -12.9429)
(-8.71859 0 -2.50105)
(-3.05528 0 -2.98584)
(-6.69868 0 -2.49913)
(-8.28323 6.6355e-18 -0.225767)
(-5.81639 0 1.50141)
(-4.18755 0 2.52427)
(-4.53069 0 2.54036)
(-4.95265 0 2.33541)
(-3.93615 -8.30058e-17 2.6179)
(-1.39412 6.98138e-17 3.08909)
(1.41351 0 3.04193)
(3.51127 -1.03734e-16 2.58233)
(4.80347 0 1.9997)
(5.46734 0 1.49996)
(5.39475 0 1.06509)
(4.41835 -3.55248e-18 0.643176)
(2.66557 0 0.264612)
(0.530787 5.009e-16 -0.00085816)
(-1.57846 0 -0.137019)
(-3.35387 0 -0.184873)
(-4.59383 9.47545e-17 -0.227805)
(-5.14961 0 -0.326963)
(-4.9181 0 -0.530212)
(-3.8473 1.15823e-18 -0.905205)
(-2.00688 8.07001e-16 -1.46425)
(0.483642 0 -2.16593)
(3.59224 4.44774e-18 -3.01052)
(7.16588 1.4416e-15 -4.12074)
(10.9768 0 -5.31642)
(14.758 3.33779e-16 -6.50426)
(17.9001 0 -7.42304)
(19.4683 -5.72703e-17 -7.67913)
(18.722 -3.51525e-16 -6.84984)
(14.9958 0 -4.48971)
(6.66007 -3.48865e-16 0.0250878)
(-6.39316 -4.85933e-19 6.58756)
(-22.7413 0 13.8838)
(-42.8629 0 13.101)
(-52.531 0 26.9066)
(-59.5812 -2.76282e-15 29.7086)
(-105.828 2.9399e-16 -33.0566)
(-71.3018 0 30.2453)
(-56.3163 3.11585e-15 30.327)
(-42.525 5.1112e-15 24.9724)
(-27.574 0 16.0843)
(-11.6402 0 6.96212)
(6.70158 0 -3.57361)
(25.8168 8.03645e-18 -16.2074)
(45.332 0 -31.3715)
(69.3955 0 -45.3788)
(86.6609 0 -53.7395)
(80.3949 0 -49.2253)
(79.7667 -4.3113e-16 -47.9778)
(114.077 1.78204e-15 -62.9052)
(35.4244 0 -1.7238)
(-188.653 0 124.022)
(-209.108 0 111.142)
(-40.4584 -4.49258e-18 -23.8204)
(556.16 0 -235.267)
(-1252.74 -5.7553e-15 764.952)
(-37.5383 0 -78.7262)
(323.833 -2.94184e-15 -177.377)
(-104.671 0 71.8947)
(85.3847 -8.56956e-16 -53.2132)
(-91.846 0 58.0981)
(-22.717 0 8.66265)
(-31.1314 0 16.6362)
(-5.88337 0 -2.34456)
(102.861 -3.45832e-15 -71.0487)
(226.131 0 -136.973)
(231.25 -2.27204e-15 -131.267)
(150.617 -1.94758e-15 -75.9505)
(28.1873 0 -4.2727)
(-94.4816 0 64.5186)
(-118.161 0 70.6388)
(-102.663 0 56.5984)
(-44.2095 -1.33205e-18 22.5812)
(-40.3082 0 24.255)
(-76.3725 -9.17905e-15 42.9181)
(-37.4095 0 19.4802)
(-42.4389 7.9712e-15 23.7071)
(-33.6856 -3.52442e-15 17.6065)
(-6.82737 -2.15833e-15 2.20691)
(6.05691 -9.27046e-16 -4.74912)
(29.3084 0 -18.2315)
(33.7678 0 -18.2689)
(1.9015 1.10473e-14 1.55055)
(-17.5212 -6.55225e-15 11.1691)
(-16.0001 -7.41205e-15 8.89266)
(-7.09819 6.72326e-15 3.61839)
(-1.80388 0 8.98258)
(4.1404 3.25242e-17 11.7876)
(11.286 0 13.2884)
(16.6147 0 13.3828)
(20.8905 0 12.5172)
(24.4545 0 11.134)
(26.7494 0 9.41418)
(26.2541 4.48713e-19 7.27138)
(21.8263 -4.91747e-18 4.91172)
(14.4701 -3.39158e-18 3.09913)
(6.91923 -1.21087e-17 2.13831)
(0.865463 -1.55246e-17 1.33381)
(-3.608 7.87122e-18 0.172382)
(-6.7154 0 -1.15998)
(-7.5318 0 -1.77238)
(-4.34274 5.17449e-17 -0.937536)
(1.6778 -2.26892e-17 0.756145)
(5.9429 0 1.68867)
(6.09112 2.54252e-17 0.739601)
(0.64876 -3.52662e-17 -0.308158)
(-3.75831 0 -3.67716)
(3.19027 -1.35324e-17 -10.4398)
(4.03593 0 -12.6338)
(1.98668 -5.7585e-17 2.46755)
(19.7719 -9.9389e-18 29.1746)
(39.5479 -1.22969e-16 23.7261)
(-2.02545 0 -15.7765)
(-39.6342 -2.44691e-16 -18.8002)
(-38.6924 2.41342e-16 -34.0368)
(-19.8874 1.94912e-16 -18.4864)
(-7.13165 6.14013e-19 -3.45594)
(-2.75698 0 -2.71819)
(-6.07368 -1.11164e-17 -2.20393)
(-7.33343 0 0.414955)
(-5.0681 0 2.20388)
(-3.72973 0 3.15299)
(-4.27682 0 3.09107)
(-4.67167 0 2.9032)
(-3.63548 1.22808e-18 3.11545)
(-1.2426 -3.16374e-17 3.39394)
(1.33797 0 3.09419)
(3.27754 1.94492e-16 2.39688)
(4.50225 0 1.62746)
(5.15704 0 0.996209)
(5.10501 0 0.479596)
(4.18431 -4.7171e-16 0.0295765)
(2.53722 0 -0.315971)
(0.552029 0 -0.494623)
(-1.38649 0 -0.515108)
(-2.98869 0 -0.444748)
(-4.06422 -1.76894e-16 -0.393367)
(-4.4671 0 -0.443047)
(-4.09225 0 -0.651709)
(-2.88551 3.04193e-16 -1.09758)
(-0.909952 0 -1.80023)
(1.71125 0 -2.72298)
(4.94372 1.57175e-15 -3.84717)
(8.6966 -6.75889e-16 -5.17399)
(12.6725 0 -6.59129)
(16.592 0 -7.92342)
(19.7932 0 -8.85228)
(21.2579 5.51538e-17 -8.90882)
(20.1243 0 -7.59646)
(15.6327 0 -4.42706)
(6.0054 6.54471e-16 1.25195)
(-8.90692 -1.28178e-16 9.2523)
(-27.5279 0 18.2052)
(-45.1884 0 27.1868)
(-61.9921 0 32.9729)
(-73.0364 1.30421e-15 36.0068)
(-115.36 -1.15974e-15 -25.0459)
(-77.7564 -3.35987e-15 36.1836)
(-63.9198 -2.92303e-15 34.1673)
(-47.8474 -2.39433e-15 26.9569)
(-30.2783 1.23105e-15 16.1495)
(-11.4814 0 5.25941)
(9.93563 0 -7.35462)
(32.0725 -1.35791e-15 -22.7171)
(55.7092 0 -39.3946)
(82.8731 0 -54.5136)
(100.776 0 -62.1823)
(91.5517 0 -55.1144)
(91.3994 0 -55.5153)
(137.254 -3.33808e-15 -74.4605)
(50.4109 0 0.609219)
(-227.753 -3.69783e-15 154.768)
(-243.815 0 127.678)
(-129.671 -3.84133e-18 4.67036)
(523.096 8.24595e-15 -221.962)
(-1355.92 0 841.245)
(-5.17108 0 -150.588)
(379.742 0 -205.183)
(-99.4841 0 73.0763)
(98.2087 8.28248e-16 -61.1385)
(-107.785 0 70.5418)
(-24.3429 0 7.76887)
(-33.6604 0 17.6214)
(1.97856 0 -11.6095)
(134.845 0 -95.6629)
(273.097 0 -166.628)
(260.274 0 -145.721)
(151.538 0 -71.9334)
(10.4787 8.53896e-16 11.5893)
(-123.926 0 77.1093)
(-134.351 0 79.8386)
(-110.544 0 59.1947)
(-42.661 4.10624e-15 20.1943)
(-44.604 0 27.6027)
(-87.269 4.28603e-15 49.0353)
(-42.6583 0 21.8051)
(-49.9167 -1.36157e-19 27.8755)
(-39.1262 0 19.971)
(-6.74208 2.01311e-15 1.28056)
(10.0966 0 -7.76566)
(36.1092 0 -22.7078)
(36.845 0 -19.4271)
(-0.275753 -5.15833e-15 3.12138)
(-20.5614 1.22333e-14 13.2414)
(-18.64 1.38367e-14 10.1853)
(-8.20374 6.27245e-15 4.04692)
(1.54213 0 12.4583)
(7.19403 -2.53956e-17 14.4953)
(13.1098 0 15.3647)
(17.6001 0 15.1736)
(21.1943 -2.40546e-17 14.0648)
(24.1245 -1.8282e-17 12.4299)
(25.8764 7.95748e-18 10.4991)
(25.1446 4.1022e-18 8.19581)
(21.0133 0 5.58732)
(14.2631 -8.69482e-19 3.27026)
(7.11604 5.02153e-18 1.73296)
(1.21773 0 0.787056)
(-3.03675 0 0.0802677)
(-5.65883 0 -0.534029)
(-5.98197 0 -0.839074)
(-3.00619 4.6111e-20 -0.790522)
(1.76117 7.91057e-18 -0.923286)
(4.48959 1.53734e-17 -1.74697)
(4.5038 1.80964e-17 -2.87649)
(0.369456 0 -1.97274)
(-1.658 -2.33579e-17 0.353568)
(7.73925 1.27559e-17 -1.12207)
(10.9672 0 -4.64259)
(8.98899 -5.43477e-17 2.06493)
(15.0081 1.01676e-16 17.1864)
(16.9003 1.38953e-16 1.30704)
(-19.8902 0 -35.4626)
(-44.0524 0 -28.4432)
(-30.4996 -2.2739e-16 -21.5574)
(-14.7877 -2.47592e-17 -15.4178)
(-3.94028 1.0449e-17 -3.13674)
(-2.28717 0 -2.69044)
(-5.40524 2.57065e-17 -2.05365)
(-6.32545 0 0.892388)
(-4.32845 0 2.72003)
(-3.25896 -1.66374e-18 3.68314)
(-3.97853 0 3.5939)
(-4.32998 -7.57767e-17 3.43665)
(-3.28936 1.54323e-18 3.57646)
(-1.06172 2.47256e-17 3.66182)
(1.30206 0 3.13582)
(3.10344 -1.73553e-18 2.22175)
(4.28196 0 1.27865)
(4.93885 0 0.513044)
(4.91194 0 -0.0960284)
(4.04978 0 -0.587793)
(2.51 0 -0.915083)
(0.671884 -4.27469e-16 -1.02246)
(-1.10375 0 -0.942169)
(-2.54586 0 -0.766663)
(-3.47414 8.24636e-17 -0.630105)
(-3.7446 0 -0.635639)
(-3.25073 -1.79895e-16 -0.850324)
(-1.93796 -2.81454e-16 -1.36273)
(0.13747 6.99262e-16 -2.19569)
(2.85232 0 -3.30785)
(6.16946 -7.35738e-16 -4.66492)
(10.0319 -6.24485e-16 -6.17978)
(14.098 0 -7.75902)
(18.0739 0 -9.16425)
(21.2545 0 -10.0264)
(22.56 -5.17862e-17 -9.80998)
(21.0395 0 -7.96098)
(15.8698 0 -3.9678)
(5.15691 -3.06687e-16 2.82443)
(-11.2886 1.20105e-16 12.1534)
(-31.6753 0 22.6051)
(-50.7374 0 34.0863)
(-70.0052 0 39.3472)
(-84.7041 0 42.0369)
(-117.14 -1.56228e-15 -7.52113)
(-82.3173 3.15022e-15 40.9474)
(-69.6255 0 36.6968)
(-51.4456 0 27.6441)
(-31.5678 -1.15374e-15 15.1052)
(-10.3371 0 2.63899)
(13.8726 5.86791e-16 -11.3964)
(38.6658 -1.27489e-15 -28.8118)
(65.3051 0 -47.2723)
(94.5333 0 -62.8224)
(111.835 0 -68.7834)
(99.2544 0 -58.9522)
(100.946 0 -62.6446)
(159.297 1.56245e-15 -86.2195)
(62.3538 0 7.10029)
(-268.735 6.91288e-15 188.374)
(-276.909 0 145.201)
(-251.557 -2.18998e-18 49.0155)
(447.67 -4.3933e-17 -133.91)
(-1353.43 0 856.746)
(67.2246 7.09997e-16 -237.369)
(439.286 0 -232.842)
(-81.2368 0 74.302)
(108.295 -1.56942e-15 -66.8194)
(-120.136 0 81.4955)
(-26.3253 0 6.52382)
(-33.8953 0 16.9097)
(14.0433 0 -25.0481)
(169.658 0 -122.262)
(314.685 0 -193.784)
(276.708 0 -151.504)
(141.376 0 -59.6045)
(-12.2999 -7.9775e-16 31.4695)
(-143.334 0 97.893)
(-142.214 0 83.9193)
(-112.175 0 57.7027)
(-37.9008 -3.83672e-15 15.8279)
(-50.031 -4.41495e-15 31.7908)
(-96.1064 -3.99889e-15 53.8507)
(-46.7508 4.29033e-15 23.2744)
(-57.0661 -1.4428e-21 31.8356)
(-44.3046 -3.07242e-15 21.9375)
(-6.3739 -3.75818e-15 -0.102941)
(14.6451 0 -11.2687)
(42.3149 -8.67524e-16 -26.862)
(38.4117 -2.90286e-15 -19.4721)
(-1.80051 0 6.20145)
(-23.0189 -5.70957e-15 15.0018)
(-20.9811 -6.45706e-15 11.2274)
(-9.19723 -5.85482e-15 4.36006)
(3.84297 0 13.6805)
(8.89753 1.05013e-17 15.4329)
(13.6917 0 16.057)
(17.4217 0 15.8007)
(20.412 2.265e-17 14.6832)
(22.7482 1.72109e-17 12.9691)
(23.8727 -7.48983e-18 10.8738)
(22.7921 -9.19066e-18 8.45373)
(18.9605 0 5.8053)
(13.0543 -4.72491e-18 3.32941)
(6.79059 -4.94631e-18 1.50249)
(1.52163 0 0.414233)
(-2.30665 -1.21364e-18 -0.0970632)
(-4.60995 0 -0.335103)
(-4.87194 -2.75644e-17 -0.532553)
(-2.41856 -2.24196e-17 -1.05429)
(1.36623 -1.58035e-18 -2.32583)
(3.49158 -1.44717e-17 -4.06825)
(4.36115 -3.47086e-17 -5.06109)
(2.1344 0 -3.17696)
(1.45915 2.19857e-17 2.19002)
(10.0989 0 3.42216)
(12.116 0 -2.54698)
(7.90225 1.68005e-17 -4.59812)
(2.90127 -2.27575e-16 -1.80795)
(-3.0027 0 -16.8427)
(-29.0375 0 -44.6478)
(-41.0531 0 -31.4758)
(-24.0647 1.73481e-16 -17.4573)
(-7.80924 -5.56809e-17 -8.91456)
(-1.57909 1.29927e-17 -1.74938)
(-1.84259 3.45126e-17 -2.34237)
(-5.46684 -3.05294e-17 -3.56122)
(-5.19881 2.79811e-18 1.25449)
(-3.56051 7.93887e-18 3.08108)
(-2.75455 2.20962e-18 4.09917)
(-3.60757 0 4.06647)
(-3.91059 7.12688e-17 3.95312)
(-2.89093 6.67416e-17 4.01433)
(-0.854826 -2.32509e-17 3.8919)
(1.29624 0 3.15621)
(2.97138 -8.39732e-17 2.03751)
(4.11809 -1.1295e-16 0.927204)
(4.7845 -1.40451e-16 0.022347)
(4.78805 -1.71054e-16 -0.686616)
(3.98996 0 -1.22806)
(2.56292 0 -1.54421)
(0.873015 7.91672e-18 -1.58747)
(-0.744685 0 -1.41285)
(-2.03815 0 -1.13749)
(-2.83595 7.49055e-17 -0.917887)
(-2.99549 5.16018e-17 -0.878483)
(-2.40915 1.68954e-16 -1.09455)
(-1.02343 3.39673e-18 -1.66477)
(1.11307 -8.11177e-18 -2.61166)
(3.87753 0 -3.88559)
(7.2301 0 -5.43966)
(11.1373 1.1656e-15 -7.10625)
(15.2228 0 -8.79401)
(19.1838 0 -10.2115)
(22.2858 -9.5259e-17 -10.9453)
(23.41 0 -10.4047)
(21.5486 0 -7.99451)
(15.8422 -3.49782e-16 -3.19668)
(4.3051 2.86205e-16 4.62421)
(-13.3013 -1.13346e-16 15.1481)
(-35.067 0 26.8872)
(-55.8831 -6.11495e-16 39.2794)
(-78.1133 0 42.5871)
(-93.8305 0 47.7494)
(-109.386 3.03803e-15 22.5895)
(-85.7811 0 44.5012)
(-73.5909 0 37.9977)
(-53.5534 0 27.1652)
(-31.7337 0 13.1097)
(-8.48836 0 -0.70595)
(17.5017 -5.49491e-16 -16.6734)
(44.8145 1.33112e-18 -35.0429)
(73.7064 1.38693e-15 -55.0945)
(104.263 -1.2755e-15 -69.9382)
(119.696 0 -73.3957)
(103.654 0 -60.8554)
(109.119 0 -69.6152)
(181.598 0 -96.5432)
(68.4257 0 20.3529)
(-311.971 -1.21563e-17 225.587)
(-313.149 0 167.542)
(-387.839 -1.5432e-15 102.975)
(350.337 -7.42985e-17 1.70352)
(-1249.26 0 809.989)
(151.75 -6.63845e-16 -383.954)
(505.376 0 -262.564)
(-55.6507 1.27419e-15 68.2295)
(116.269 -2.51124e-17 -70.266)
(-127.931 0 90.4522)
(-29.1413 0 5.24613)
(-31.3044 0 14.1006)
(32.5919 0 -38.7219)
(205.272 -2.83014e-15 -150.876)
(349.387 0 -216.317)
(279.539 0 -147.905)
(123.231 -1.58012e-15 -41.2722)
(-35.3173 0 52.056)
(-156.137 2.19158e-16 114.602)
(-142.798 6.62966e-16 83.142)
(-108.876 0 52.9809)
(-31.7462 7.16658e-15 10.7603)
(-58.0672 -9.31482e-19 37.989)
(-102.788 7.46559e-15 57.4105)
(-49.5825 -4.00596e-15 23.9772)
(-63.9699 -3.2449e-15 35.6902)
(-49.5463 2.86851e-15 23.7091)
(-5.92226 1.75381e-15 -1.82902)
(19.4437 7.49764e-16 -15.0789)
(47.7617 8.09847e-16 -30.5218)
(38.7694 2.70977e-15 -18.5974)
(-3.32569 4.50647e-15 8.92243)
(-24.9646 5.32619e-15 16.5204)
(-23.0316 0 12.0702)
(-10.1027 0 4.57905)
(5.3204 0 13.0773)
(9.61132 3.21886e-18 14.7126)
(13.2652 0 15.19)
(16.2739 0 14.9563)
(18.7292 0 13.9931)
(20.5229 0 12.3712)
(21.0363 -1.18175e-18 10.2522)
(19.5659 4.63758e-18 7.83961)
(15.9613 -8.66801e-18 5.34725)
(10.932 6.86353e-18 3.04858)
(5.76825 4.64979e-18 1.2581)
(1.40272 0 0.108231)
(-1.86038 1.14092e-18 -0.415547)
(-3.90481 0 -0.56758)
(-4.24179 2.59136e-17 -0.732436)
(-2.24896 2.02887e-17 -1.4446)
(1.01877 0 -3.08756)
(3.23185 0 -5.08928)
(5.20403 1.66172e-17 -6.0651)
(4.51361 0 -4.59506)
(3.64 0 0.708546)
(8.99711 -5.59017e-17 2.22007)
(8.02455 0 -5.66105)
(1.95233 0 -13.0324)
(-8.84025 1.32266e-16 -17.9168)
(-15.5613 0 -26.87)
(-29.9868 0 -44.3938)
(-33.0259 0 -29.2689)
(-16.5124 -2.84365e-16 -13.2439)
(-3.21808 0 -6.24214)
(0.0360889 1.32553e-17 -1.34772)
(-1.78198 6.03809e-18 -1.6864)
(-4.36416 1.52215e-17 -3.0437)
(-4.4017 -2.62952e-18 -0.176827)
(-2.72008 -1.92568e-17 3.34527)
(-2.18839 -6.05884e-19 4.40137)
(-3.14065 0 4.50562)
(-3.40898 0 4.45314)
(-2.44616 5.85959e-17 4.43178)
(-0.635282 -1.69197e-17 4.07877)
(1.30725 0 3.14946)
(2.86445 0 1.83796)
(3.9899 4.77112e-18 0.565853)
(4.67145 1.31905e-16 -0.481951)
(4.71146 1.60633e-16 -1.29541)
(3.98464 3.64264e-16 -1.89084)
(2.67749 0 -2.19906)
(1.13786 9.04343e-18 -2.18173)
(-0.326971 0 -1.91593)
(-1.48427 0 -1.54304)
(-2.17033 -7.03049e-17 -1.23963)
(-2.24316 -4.84279e-17 -1.15165)
(-1.59412 0 -1.3616)
(-0.171769 2.44814e-16 -1.97819)
(1.98404 -9.67839e-18 -3.02066)
(4.75057 0 -4.42999)
(8.08764 0 -6.14835)
(11.9821 -1.07928e-15 -7.92763)
(16.0258 0 -9.67698)
(19.918 0 -11.0577)
(22.9104 1.76906e-16 -11.6199)
(23.8682 0 -10.729)
(21.7559 0 -7.76355)
(15.7007 6.54915e-16 -2.2119)
(3.64094 -2.6824e-16 6.52472)
(-14.7273 5.34078e-17 18.0949)
(-37.4731 0 30.912)
(-60.0816 5.72921e-16 44.0273)
(-82.7738 0 48.5756)
(-99.279 -1.1283e-15 53.0007)
(-101.412 -1.47419e-15 49.1806)
(-88.892 0 47.1232)
(-76.0404 0 38.2258)
(-54.4871 1.94549e-15 25.6947)
(-31.1266 9.96768e-16 10.3642)
(-6.43154 0 -4.56921)
(22.3349 0 -19.7339)
(50.4123 2.22916e-15 -41.1481)
(80.9134 -1.29787e-15 -62.3605)
(111.767 2.38599e-15 -75.9978)
(124.332 0 -75.9509)
(105.084 0 -61.0938)
(116.861 0 -77.0527)
(203.862 0 -106.177)
(65.1654 0 42.4446)
(-356.288 -1.64242e-17 265.727)
(-355.617 0 197.082)
(-515.294 0 152.179)
(221.152 -8.46678e-17 79.5919)
(-1046.28 0 698.871)
(289.21 -6.04205e-16 -482.57)
(584.505 0 -293.545)
(-20.6085 -1.1908e-15 61.6908)
(122.441 -2.94653e-17 -71.49)
(-130.358 0 96.9877)
(-33.0803 0 4.10148)
(-25.958 0 8.91108)
(53.5901 0 -58.9111)
(240.745 1.6684e-18 -180.271)
(375.527 -2.7511e-15 -232.971)
(269.022 1.71942e-15 -134.827)
(102.345 1.47581e-15 -20.3361)
(-56.4236 0 71.5237)
(-167.393 -2.04669e-16 115.054)
(-135.552 -6.19104e-16 77.6927)
(-102.346 0 46.1829)
(-26.5561 -3.34618e-15 6.52601)
(-70.2254 7.7011e-15 46.8844)
(-107.328 -3.48402e-15 59.4876)
(-51.1044 0 23.8752)
(-70.6222 3.02973e-15 39.4521)
(-55.2359 0 25.4599)
(-5.67295 0 -3.80652)
(24.2041 -6.99885e-16 -19.0522)
(52.3454 0 -33.6094)
(38.1228 0 -16.9461)
(-5.01763 -4.20629e-15 10.4377)
(-26.3358 -4.97127e-15 17.7751)
(-24.823 -5.61447e-15 12.713)
(-10.9406 5.09129e-15 4.71145)
(6.05191 0 10.8797)
(9.40727 -3.02514e-18 12.3992)
(11.9901 -2.46135e-18 12.818)
(14.3916 0 12.689)
(16.3675 0 11.9653)
(17.7007 0 10.5837)
(17.7526 1.11056e-18 8.64232)
(16.0024 0 6.4187)
(12.5849 8.14308e-18 4.23276)
(8.29658 0 2.31213)
(4.14526 0 0.796862)
(0.690933 7.35504e-18 -0.270736)
(-1.96334 0 -0.840916)
(-3.71035 -5.83237e-18 -1.01733)
(-4.04034 1.50267e-17 -1.1264)
(-2.28432 -1.90542e-17 -1.72508)
(0.830106 0 -3.24819)
(3.38865 -1.54244e-18 -5.22084)
(6.12702 0 -6.50797)
(6.2187 -4.68692e-17 -6.47226)
(4.1758 0 -3.23557)
(5.44374 5.2505e-17 -2.62625)
(1.72358 -1.50915e-17 -10.7362)
(-4.50066 0 -19.133)
(-15.6363 0 -26.2676)
(-19.6744 -1.41988e-16 -28.54)