/*--------------------------------*- C++ -*----------------------------------*\
| =========                 |                                                 |
| \\      /  F ield         | OpenFOAM: The Open Source CFD Toolbox           |
|  \\    /   O peration     | Version:  2412                                  |
|   \\  /    A nd           | Website:  www.openfoam.com                      |
|    \\/     M anipulation  |                                                 |
\*---------------------------------------------------------------------------*/
FoamFile
{
    version     2.0;
    format      ascii;
    arch        "LSB;label=32;scalar=64";
    class       volVectorField;
    location    "1.545";
    object      U;
}
// * * * * * * * * * * * * * * * * * * * * * * * * * * * * * * * * * * * * * //

dimensions      [0 1 -1 0 0 0 0];

internalField   nonuniform List<vector> 
12600
(
(18.7516 1.23561e-21 2.09717)
(11.6253 1.60873e-20 0.45196)
(7.35406 1.89127e-20 -0.477704)
(5.09085 0 -0.709345)
(3.97704 1.70858e-20 -0.682438)
(3.33585 1.59064e-20 -0.607677)
(2.89427 0 -0.539939)
(2.56278 0 -0.484422)
(2.30295 -4.7763e-20 -0.438906)
(2.09263 0 -0.401118)
(1.9181 2.00181e-20 -0.369208)
(1.77042 1.83222e-20 -0.341846)
(1.64348 -1.67778e-20 -0.318081)
(1.53294 0 -0.297216)
(1.43562 -1.40492e-20 -0.278725)
(1.34911 0 -0.262206)
(1.2716 4.71602e-20 -0.247342)
(1.20166 0 -0.233884)
(1.13814 -1.97148e-20 -0.221629)
(1.08015 -1.80189e-20 -0.210414)
(1.02694 1.64372e-20 -0.200105)
(0.977894 5.33814e-24 -0.190588)
(0.932512 0 -0.18177)
(0.890366 -2.4735e-20 -0.173573)
(0.851097 0 -0.165928)
(0.814397 0 -0.158778)
(0.780002 -1.82766e-20 -0.152074)
(0.747685 0 -0.145771)
(0.717247 4.16017e-24 -0.139832)
(0.688515 1.31455e-20 -0.134225)
(0.661339 1.168e-20 -0.12892)
(0.635582 1.03229e-20 -0.123892)
(0.611127 -9.06656e-21 -0.119117)
(0.587868 -1.58081e-20 -0.114575)
(0.565709 -1.36576e-20 -0.110248)
(0.544565 1.16589e-20 -0.10612)
(0.524361 0 -0.102175)
(0.505026 -8.13783e-21 -0.0984002)
(0.486498 0 -0.0947835)
(0.46872 5.13269e-21 -0.0913136)
(0.451639 0 -0.0879804)
(0.435209 1.76424e-23 -0.0847746)
(0.419384 0 -0.0816877)
(0.404125 1.60536e-23 -0.0787118)
(0.389395 -1.02585e-21 -0.0758397)
(0.375159 2.73243e-21 -0.0730645)
(0.361386 -4.31745e-21 -0.0703802)
(0.348045 0 -0.0677809)
(0.335109 0 -0.0652611)
(0.322552 -8.22353e-21 -0.0628159)
(0.31035 -1.8573e-20 -0.0604405)
(0.298481 -2.04865e-20 -0.0581304)
(0.286922 1.95534e-23 -0.0558816)
(0.275655 -2.37142e-20 -0.0536901)
(0.26466 0 -0.0515521)
(0.253919 2.62896e-20 -0.0494643)
(0.243417 2.73386e-20 -0.0474233)
(0.233136 2.8234e-20 -0.0454259)
(0.223062 0 -0.0434695)
(0.21318 0 -0.0415509)
(0.203479 0 -0.0396678)
(0.193944 -6.13593e-20 -0.0378176)
(0.184565 0 -0.0359981)
(0.175329 0 -0.0342071)
(0.166228 1.25798e-19 -0.0324425)
(0.157252 0 -0.0307025)
(0.148392 0 -0.0289855)
(0.139642 0 -0.02729)
(0.130992 -1.25639e-19 -0.0256144)
(0.122441 1.24978e-19 -0.0239582)
(0.11398 1.24103e-19 -0.0223197)
(0.105613 2.35137e-23 -0.0206997)
(0.0973296 -1.21769e-19 -0.019096)
(0.0891436 0 -0.0175112)
(0.08104 1.1875e-19 -0.0159425)
(0.0730459 0 -0.0143949)
(0.0651405 0 -0.0128645)
(0.0573666 0 -0.0113594)
(0.049696 2.85917e-23 -0.00987418)
(0.0421889 2.17676e-19 -0.00842029)
(0.0348101 2.13047e-19 -0.00699105)
(0.0276338 -2.08223e-19 -0.00560054)
(0.0206255 -2.03258e-19 -0.00424227)
(0.0138581 0 -0.00293005)
(0.00731948 0 -0.00166177)
(0.00104695 3.75187e-19 -0.000444241)
(-0.00490899 -7.28541e-19 0.000712166)
(-0.0105987 7.06481e-19 0.00181785)
(-0.0158672 3.42057e-19 0.00284236)
(-0.0208767 0 0.00381761)
(-0.0254078 -6.38856e-19 0.00470017)
(-0.0296117 3.08132e-19 0.00552078)
(-0.0334138 -2.96675e-19 0.00626229)
(-0.0368258 5.70951e-19 0.00693155)
(-0.039501 0 0.00745395)
(-0.0432559 0 0.00818339)
(-0.0428694 0 0.00812333)
(-0.0489055 0 0.00929071)
(-0.0467094 0 0.00886175)
(-0.0498463 0 0.00949021)
(-0.0525134 -4.19311e-19 0.00998756)
(-0.0466731 -8.02448e-19 0.00890593)
(-0.0580643 -7.56288e-19 0.0110802)
(-0.0551002 0 0.0103716)
(-0.0334948 0 0.00658279)
(-0.0929434 0 0.0176911)
(-0.00682951 -6.38696e-19 0.00129797)
(-0.081024 -1.12348e-18 0.0157673)
(-0.0678661 5.6955e-19 0.0125651)
(-0.0271979 0 0.00545375)
(-0.103574 -9.91935e-19 0.0197601)
(-0.0112341 0 0.00226619)
(-0.132637 -8.57575e-19 0.02537)
(-0.0317374 8.69048e-19 0.00579644)
(-0.0702644 -7.63176e-19 0.014175)
(-0.200094 -7.39699e-19 0.0374392)
(0.0755761 7.79706e-19 -0.0144538)
(0.0958278 3.6504e-22 -0.0147909)
(-0.755811 4.81975e-19 0.144051)
(-0.495515 0 0.0920734)
(29.1648 -1.24735e-21 4.02992)
(25.1175 0 1.86093)
(20.2518 -1.91417e-20 -0.212489)
(16.0823 0 -1.2119)
(13.1206 -1.73128e-20 -1.50769)
(11.0764 -3.0386e-20 -1.51869)
(9.60307 -1.40608e-20 -1.441)
(8.4903 0 -1.3433)
(7.61686 3.55884e-22 -1.24783)
(6.90987 -2.18403e-20 -1.16069)
(6.32366 2.00457e-20 -1.08256)
(5.82817 1.8396e-20 -1.0127)
(5.40277 -1.68795e-20 -0.950103)
(5.03278 1.54845e-20 -0.893794)
(4.70745 2.84564e-20 -0.842909)
(4.41868 0 -0.796715)
(4.1603 -6.44161e-23 -0.754591)
(3.92744 2.18299e-20 -0.716016)
(3.71629 2.00016e-20 -0.680549)
(3.52374 0 -0.647819)
(3.3473 0 -0.61751)
(3.18489 1.51821e-20 -0.589354)
(3.0348 0 -0.563119)
(2.89559 1.25389e-20 -0.538608)
(2.76604 -2.27179e-20 -0.515647)
(2.6451 0 -0.494087)
(2.5319 1.85248e-20 -0.473797)
(2.42565 0 -0.454662)
(2.3257 -1.49184e-20 -0.436581)
(2.23146 -2.66318e-20 -0.419464)
(2.14241 -2.36586e-20 -0.40323)
(2.05811 -1.04486e-20 -0.387809)
(1.97816 9.17447e-21 -0.373137)
(1.90219 3.20012e-20 -0.359156)
(1.82989 2.7642e-20 -0.345815)
(1.76097 0 -0.333067)
(1.69519 0 -0.320869)
(1.6323 -1.74423e-23 -0.309183)
(1.57209 0 -0.297973)
(1.51437 -5.18166e-21 -0.287207)
(1.45898 0 -0.276856)
(1.40574 -5.21597e-21 -0.266892)
(1.35452 0 -0.25729)
(1.30518 -8.79555e-22 -0.248027)
(1.25759 0 -0.239081)
(1.21164 -2.75138e-21 -0.230433)
(1.16723 0 -0.222063)
(1.12425 0 -0.213955)
(1.08261 7.05132e-21 -0.206091)
(1.04223 0 -0.198458)
(1.00303 0 -0.19104)
(0.964933 0 -0.183824)
(0.927867 2.22525e-20 -0.176798)
(0.891765 4.75183e-20 -0.169949)
(0.856567 0 -0.163267)
(0.822213 0 -0.15674)
(0.788649 -2.73144e-20 -0.150359)
(0.75582 -2.82327e-20 -0.144114)
(0.72368 0 -0.137996)
(0.692178 0 -0.131997)
(0.661275 0 -0.126109)
(0.630925 0 -0.120323)
(0.601093 -6.17654e-20 -0.114633)
(0.571739 6.22299e-20 -0.109032)
(0.542831 -1.25082e-19 -0.103513)
(0.514337 0 -0.0980721)
(0.486227 0 -0.0927024)
(0.45848 0 -0.0874001)
(0.431065 4.75553e-23 -0.08216)
(0.403976 -1.23783e-19 -0.0769805)
(0.377179 -1.22804e-19 -0.071856)
(0.350688 2.43217e-19 -0.0667889)
(0.324466 3.60113e-23 -0.0617725)
(0.298554 -1.18709e-19 -0.0568146)
(0.272904 -1.17061e-19 -0.0519064)
(0.247596 0 -0.0470632)
(0.222565 0 -0.0422728)
(0.197938 0 -0.03756)
(0.17363 2.18039e-19 -0.032908)
(0.14982 0 -0.0283522)
(0.126403 0 -0.0238713)
(0.1036 2.03792e-19 -0.0195097)
(0.0813118 1.9872e-19 -0.0152458)
(0.059753 0 -0.0111242)
(0.0388967 0 -0.00713566)
(0.0188457 0 -0.00330521)
(-0.00022706 7.09119e-19 0.000340854)
(-0.018498 -4.22021e-23 0.00382822)
(-0.0354525 3.32182e-19 0.00706736)
(-0.0516432 -3.20914e-19 0.0101541)
(-0.0663 6.1912e-19 0.0129531)
(-0.0800269 2.98266e-19 0.0155648)
(-0.0923918 5.73786e-19 0.0179296)
(-0.103647 0 0.0200564)
(-0.112601 0 0.0217884)
(-0.124609 0 0.0240321)
(-0.124458 0 0.0240297)
(-0.14331 4.63518e-19 0.0276465)
(-0.136828 0 0.0263104)
(-0.147934 0 0.0285384)
(-0.1549 -4.0205e-19 0.0297657)
(-0.140269 3.84354e-19 0.0269798)
(-0.173059 1.44753e-18 0.03352)
(-0.162513 -6.95891e-19 0.030607)
(-0.107236 0 0.0213165)
(-0.271885 0 0.0520593)
(-0.0253757 0 0.00432175)
(-0.248811 5.35081e-19 0.0493568)
(-0.193118 -5.42043e-19 0.0356463)
(-0.0912692 0 0.0184363)
(-0.308063 1.88479e-18 0.0590032)
(-0.0430027 9.02864e-19 0.00852427)
(-0.397153 1.62689e-18 0.0770166)
(-0.0946211 0 0.0166552)
(-0.231626 0 0.0477237)
(-0.557187 -6.99681e-19 0.104889)
(0.195901 0 -0.0426177)
(0.15657 -5.63999e-19 -0.0161336)
(-2.19367 -4.54812e-19 0.431874)
(-1.32317 0 0.248676)
(31.9083 0 3.90203)
(31.0922 0 2.82298)
(28.5601 -1.29611e-20 1.02628)
(25.2146 0 -0.381534)
(21.9605 0 -1.22605)
(19.1858 1.51063e-20 -1.65103)
(16.9263 1.33157e-20 -1.81936)
(15.1004 0 -1.85091)
(13.6122 4.20759e-22 -1.81712)
(12.3814 2.06907e-20 -1.75454)
(11.3476 -3.77732e-20 -1.68068)
(10.4665 -1.74301e-20 -1.60389)
(9.7058 1.14497e-22 -1.52817)
(9.04163 -1.46728e-20 -1.45536)
(8.45608 -1.3456e-20 -1.38626)
(7.9354 1.22847e-20 -1.32112)
(7.46894 -2.25986e-20 -1.25993)
(7.04825 -2.06869e-20 -1.20252)
(6.6666 0 -1.14868)
(6.31852 0 -1.09817)
(5.99956 1.57487e-20 -1.05072)
(5.70602 1.43552e-20 -1.00612)
(5.43481 0 -0.96412)
(5.18335 0 -0.924525)
(4.94943 2.15266e-20 -0.887139)
(4.73119 0 -0.851789)
(4.527 -3.50999e-20 -0.818316)
(4.33548 1.57791e-20 -0.786574)
(4.15541 0 -0.756432)
(3.98572 1.26186e-20 -0.727772)
(3.8255 1.12102e-20 -0.700485)
(3.67391 0 -0.674471)
(3.53024 -8.70426e-21 -0.649642)
(3.39382 -1.51644e-20 -0.625913)
(3.26408 1.22284e-23 -0.603212)
(3.1405 0 -0.581467)
(3.02261 0 -0.560616)
(2.90998 7.80211e-21 -0.540601)
(2.80224 0 -0.521368)
(2.69904 0 -0.502868)
(2.60005 0 -0.485053)
(2.50499 0 -0.467883)
(2.41359 0 -0.451317)
(2.32561 0 -0.435318)
(2.24081 0 -0.419852)
(2.159 2.56077e-21 -0.404887)
(2.07998 -4.05788e-21 -0.390392)
(2.00356 0 -0.376341)
(1.92959 -6.67121e-21 -0.362706)
(1.8579 0 -0.349461)
(1.78835 0 -0.336585)
(1.7208 1.93672e-20 -0.324054)
(1.65513 0 -0.311848)
(1.59122 -2.24511e-20 -0.299946)
(1.52895 2.37006e-20 -0.288331)
(1.46821 0 -0.276983)
(1.40891 2.58181e-20 -0.265887)
(1.35095 0 -0.255025)
(1.29424 0 -0.244384)
(1.2387 0 -0.233947)
(1.18425 5.69104e-20 -0.223703)
(1.1308 5.77001e-20 -0.213636)
(1.07829 2.8572e-23 -0.203736)
(1.02666 -1.17498e-19 -0.193991)
(0.975839 2.50578e-23 -0.184389)
(0.925772 0 -0.174922)
(0.876402 0 -0.165579)
(0.82769 -1.1795e-19 -0.156352)
(0.77958 3.83047e-23 -0.147234)
(0.732057 0 -0.138221)
(0.68506 0 -0.129304)
(0.638611 -1.14661e-19 -0.120485)
(0.592639 2.89776e-23 -0.111754)
(0.547214 2.69681e-23 -0.103123)
(0.502248 0 -0.0945771)
(0.457875 0 -0.0861419)
(0.413982 -2.13361e-19 -0.0777968)
(0.370781 2.09417e-19 -0.0695831)
(0.328125 0 -0.0614725)
(0.286316 0 -0.0535247)
(0.245176 0 -0.0457034)
(0.205074 0 -0.0380844)
(0.165848 0 -0.0306297)
(0.127854 0 -0.0234179)
(0.0910582 0 -0.0164294)
(0.0556227 0 -0.0097121)
(0.0218644 -6.66674e-19 -0.00330548)
(-0.0105433 -3.22845e-19 0.0028298)
(-0.0406736 -3.12209e-19 0.00854078)
(-0.0695383 3.01556e-19 0.0139948)
(-0.0956965 -5.816e-19 0.0189477)
(-0.120363 -2.80159e-19 0.0235951)
(-0.142527 -2.6941e-19 0.027801)
(-0.162916 0 0.0315946)
(-0.17931 0 0.0347826)
(-0.200569 0 0.0386382)
(-0.20183 0 0.0390048)
(-0.234464 -4.34856e-19 0.0452006)
(-0.223942 0 0.0429312)
(-0.244911 0 0.0472786)
(-0.255275 3.76973e-19 0.048837)
(-0.234769 0 0.0451511)
(-0.28762 -6.78357e-19 0.0558402)
(-0.268522 6.52129e-19 0.0496144)
(-0.187871 0 0.0383891)
(-0.445687 0 0.0841747)
(-0.0499133 0 0.0082428)
(-0.422816 5.01104e-19 0.0855931)
(-0.309791 0 0.0548615)
(-0.166386 -4.63488e-19 0.0348545)
(-0.511442 -5.83785e-23 0.0971351)
(-0.0846876 -8.44985e-19 0.0175501)
(-0.663483 -1.52228e-18 0.128988)
(-0.158615 0 0.0261117)
(-0.41346 6.76416e-19 0.0891363)
(-0.878446 6.54467e-19 0.159915)
(0.2798 6.89852e-19 -0.0672126)
(0.0951714 0 0.0283543)
(-3.56077 4.25265e-19 0.710523)
(-1.97663 0 0.356616)
(32.4294 0 2.9609)
(32.9944 0 2.77367)
(32.4397 1.22525e-20 1.72784)
(30.7945 0 0.525048)
(28.5387 -1.2291e-20 -0.481463)
(26.1196 2.4999e-20 -1.2054)
(23.7974 0 -1.6691)
(21.6885 -2.18099e-20 -1.93362)
(19.8264 2.09075e-20 -2.06298)
(18.2017 1.89008e-20 -2.10732)
(16.7867 1.77596e-20 -2.10051)
(15.5502 -1.61364e-20 -2.06384)
(14.4638 1.50177e-20 -2.01029)
(13.5031 -2.73687e-20 -1.9477)
(12.6479 0 -1.8808)
(11.882 -2.31743e-20 -1.81246)
(11.1921 0 -1.74444)
(10.5672 0 -1.67777)
(9.99844 0 -1.61308)
(9.47837 1.6274e-20 -1.5507)
(9.00084 -3.41096e-23 -1.4908)
(8.56068 -2.593e-23 -1.43342)
(8.15353 1.23367e-20 -1.37857)
(7.77568 0 -1.32616)
(7.42397 0 -1.27611)
(7.09567 0 -1.22832)
(6.78843 3.31822e-20 -1.18268)
(6.5002 -5.88451e-24 -1.13908)
(6.22918 0 -1.0974)
(5.97382 0 -1.05754)
(5.73272 0 -1.01939)
(5.50467 0 -0.982856)
(5.28857 1.64646e-20 -0.947838)
(5.08345 0 -0.91425)
(4.88844 -1.23964e-20 -0.882007)
(4.70276 0 -0.851031)
(4.52571 0 -0.821247)
(4.35664 -7.39917e-21 -0.792588)
(4.19498 0 -0.764988)
(4.04021 0 -0.738385)
(3.89184 3.4736e-21 -0.712724)
(3.74943 -4.73828e-21 -0.687949)
(3.61259 0 -0.664011)
(3.48093 -8.52916e-22 -0.640861)
(3.35412 0 -0.618456)
(3.23184 -4.81889e-21 -0.596753)
(3.1138 1.89562e-23 -0.575713)
(2.99973 0 -0.555297)
(2.88937 0 -0.535471)
(2.78249 7.32348e-21 -0.5162)
(2.67887 1.65496e-20 -0.497452)
(2.57829 -3.65458e-20 -0.479197)
(2.48058 0 -0.461407)
(2.38553 -2.11452e-20 -0.444054)
(2.29299 -2.23725e-20 -0.427111)
(2.20279 -2.34037e-20 -0.410554)
(2.11477 -2.43239e-20 -0.39436)
(2.0288 0 -0.378504)
(1.94474 0 -0.362966)
(1.86246 -5.27192e-20 -0.347725)
(1.78183 -1.07332e-19 -0.332763)
(1.70275 -5.4421e-20 -0.318059)
(1.6251 3.06559e-23 -0.303598)
(1.54878 5.5383e-20 -0.28936)
(1.4737 5.56316e-20 -0.275333)
(1.39978 0 -0.2615)
(1.32691 0 -0.247849)
(1.25505 1.11154e-19 -0.234368)
(1.1841 2.21255e-19 -0.221044)
(1.11403 0 -0.207873)
(1.04477 1.08999e-19 -0.19484)
(0.976322 1.07925e-19 -0.18195)
(0.908591 1.0672e-19 -0.169187)
(0.841666 2.10635e-19 -0.156567)
(0.77542 0 -0.14407)
(0.710035 0 -0.13173)
(0.645348 2.00777e-19 -0.11952)
(0.581656 -3.94021e-19 -0.107496)
(0.518749 -1.93051e-19 -0.0956197)
(0.457046 0 -0.0839741)
(0.3963 0 -0.0725081)
(0.337028 0 -0.0613301)
(0.279004 0 -0.0503849)
(0.222728 0 -0.0397866)
(0.168166 0 -0.0295047)
(0.115534 -3.229e-19 -0.0196124)
(0.0653131 4.07628e-23 -0.0101619)
(0.0170048 3.03143e-19 -0.00110186)
(-0.0280002 0 0.00735114)
(-0.071239 2.83058e-19 0.015438)
(-0.11048 2.72955e-19 0.0227911)
(-0.147708 0 0.0297285)
(-0.181103 -2.52757e-19 0.0359962)
(-0.212114 -4.85701e-19 0.0416813)
(-0.237297 0 0.0465576)
(-0.268965 0 0.0521365)
(-0.273054 0 0.0531843)
(-0.320468 -4.07638e-19 0.0620597)
(-0.306421 0 0.0588639)
(-0.339264 0 0.0658033)
(-0.352191 3.53201e-19 0.0673247)
(-0.329003 -3.37547e-19 0.0635056)
(-0.400232 0 0.0780377)
(-0.372391 0 0.0679067)
(-0.274274 0 0.0573009)
(-0.612716 0 0.11468)
(-0.0812127 0 0.0132878)
(-0.60065 1.06568e-24 0.123813)
(-0.417338 0 0.0713391)
(-0.252939 4.33717e-19 0.0544208)
(-0.711357 -8.25258e-19 0.13447)
(-0.136745 0 0.0289772)
(-0.929353 5.41863e-23 0.181389)
(-0.224302 0 0.0348846)
(-0.613149 6.08614e-23 0.136382)
(-1.16374 0 0.20675)
(0.319319 -6.44989e-19 -0.086091)
(-0.0806059 0 0.106258)
(-4.83434 3.96935e-19 0.97874)
(-2.42386 0 0.421262)
(32.5313 0 2.1092)
(33.2883 0 2.23376)
(33.6343 0 1.75761)
(33.2689 0 0.962371)
(32.2445 1.16018e-20 0.119353)
(30.7685 -9.01959e-22 -0.630867)
(29.0466 0 -1.23282)
(27.2379 2.05855e-20 -1.67731)
(25.452 0 -1.98152)
(23.7552 -3.51794e-20 -2.17373)
(22.1799 0 -2.28257)
(20.7362 1.52339e-20 -2.33207)
(19.4218 0 -2.34056)
(18.2276 2.58403e-20 -2.32132)
(17.1427 -1.17662e-20 -2.28366)
(16.1554 2.17353e-20 -2.23403)
(15.2548 -1.98913e-20 -2.1769)
(14.4309 -1.82522e-20 -2.11532)
(13.6749 0 -2.0514)
(12.9792 -1.53671e-20 -1.98659)
(12.337 -1.40338e-20 -1.92191)
(11.7425 -2.55577e-20 -1.85801)
(11.1906 -1.16492e-20 -1.79537)
(10.6769 0 -1.73428)
(10.1976 0 -1.67492)
(9.74937 0 -1.61741)
(9.32917 -1.56609e-20 -1.56179)
(8.93445 -1.40845e-20 -1.50807)
(8.5629 0 -1.45623)
(8.21252 0 -1.40625)
(7.88148 1.00108e-20 -1.35806)
(7.5682 0 -1.31162)
(7.27121 1.44477e-24 -1.26685)
(6.98925 -1.35594e-20 -1.22369)
(6.72115 1.17183e-20 -1.18207)
(6.46585 0 -1.14193)
(6.22241 0 -1.10319)
(5.98998 6.98349e-21 -1.06579)
(5.76776 0 -1.02967)
(5.55505 0 -0.99476)
(5.35119 -3.27791e-21 -0.961004)
(5.15558 4.47107e-21 -0.928344)
(4.96767 0 -0.896725)
(4.78695 8.04711e-22 -0.866094)
(4.61296 0 -0.8364)
(4.44525 2.26361e-21 -0.807596)
(4.28343 3.59815e-21 -0.779634)
(4.12713 0 -0.75247)
(3.97598 5.89523e-21 -0.726063)
(3.82968 -6.90645e-21 -0.700371)
(3.6879 -3.11818e-20 -0.675357)
(3.55038 1.72155e-20 -0.650981)
(3.41683 -1.86274e-20 -0.627209)
(3.28701 2.55266e-23 -0.604007)
(3.16069 0 -0.581343)
(3.03762 2.20589e-20 -0.559183)
(2.91762 2.29239e-20 -0.537501)
(2.80046 -2.3649e-20 -0.516263)
(2.68597 2.42845e-20 -0.495447)
(2.57397 4.96691e-20 -0.475022)
(2.46429 5.05388e-20 -0.454966)
(2.35676 -5.11982e-20 -0.435251)
(2.25124 5.17557e-20 -0.415859)
(2.14759 0 -0.396765)
(2.04566 0 -0.377949)
(1.94535 5.24291e-20 -0.359392)
(1.84652 0 -0.341077)
(1.74909 0 -0.322988)
(1.65293 -1.04093e-19 -0.305108)
(1.558 0 -0.287429)
(1.46418 -1.02552e-19 -0.269936)
(1.37148 -2.0302e-19 -0.252629)
(1.27977 0 -0.235491)
(1.18915 -9.90317e-20 -0.218541)
(1.09945 0 -0.201753)
(1.0109 0 -0.185169)
(0.923276 -1.88647e-19 -0.168755)
(0.836967 1.85147e-19 -0.152584)
(0.751691 3.92502e-23 -0.136604)
(0.667991 0 -0.120924)
(0.58554 0 -0.105478)
(0.505009 0 -0.090407)
(0.426109 -1.64985e-19 -0.0756379)
(0.349482 1.6059e-19 -0.0613239)
(0.275101 0 -0.0474197)
(0.203234 6.06175e-19 -0.03403)
(0.134542 2.93829e-19 -0.0212137)
(0.0683392 -5.68908e-19 -0.00891719)
(0.00652778 -2.74977e-19 0.00258619)
(-0.0530157 -5.3105e-19 0.0136083)
(-0.107151 0 0.0236471)
(-0.15879 0 0.0331641)
(-0.205067 2.37001e-19 0.0417554)
(-0.248413 4.55352e-19 0.0495844)
(-0.283935 -4.36503e-19 0.0564393)
(-0.327363 0 0.0638607)
(-0.335939 0 0.0659853)
(-0.39918 3.81932e-19 0.0776249)
(-0.382451 3.64996e-19 0.0735792)
(-0.42925 0 0.0836416)
(-0.444038 -3.30781e-19 0.0847115)
(-0.421568 3.16076e-19 0.0816685)
(-0.509223 0 0.099651)
(-0.473401 0 0.0850945)
(-0.364826 0 0.0779002)
(-0.771635 0 0.142623)
(-0.119683 0 0.0196682)
(-0.779562 -4.3886e-19 0.16344)
(-0.515894 0 0.0844231)
(-0.350655 0 0.0775039)
(-0.905462 0 0.169941)
(-0.199317 7.39386e-19 0.0432596)
(-1.19231 6.65686e-19 0.233376)
(-0.292466 0 0.0430085)
(-0.827146 -5.9144e-19 0.189303)
(-1.41512 0 0.243161)
(0.308539 -6.03099e-19 -0.0965309)
(-0.353296 0 0.22011)
(-5.99489 -3.7095e-19 1.22746)
(-2.64018 0 0.427471)
(32.6027 -4.96435e-21 1.49579)
(33.1854 -6.16645e-21 1.63453)
(33.7115 7.3259e-21 1.44268)
(33.9364 8.25811e-21 0.98082)
(33.7429 0 0.387977)
(33.143 -9.90278e-21 -0.22882)
(32.2099 0 -0.803726)
(31.0348 1.73908e-20 -1.29969)
(29.7064 1.66257e-20 -1.70128)
(28.301 3.20641e-20 -2.00891)
(26.8783 -1.47492e-20 -2.2323)
(25.4804 1.37604e-20 -2.38497)
(24.1347 0 -2.48086)
(22.8566 0 -2.5326)
(21.6535 1.1093e-20 -2.55086)
(20.5271 -1.14526e-22 -2.54416)
(19.4759 1.75982e-22 -2.51917)
(18.4963 1.35808e-22 -2.48097)
(17.5838 0 -2.4334)
(16.7335 0 -2.37935)
(15.9405 0 -2.32097)
(15.2 2.40144e-20 -2.25989)
(14.5077 1.09194e-20 -2.19728)
(13.8594 0 -2.13405)
(13.2513 0 -2.07086)
(12.6802 1.63116e-20 -2.00819)
(12.1428 0 -1.94639)
(11.6365 0 -1.88572)
(11.1586 0 -1.82634)
(10.7069 0 -1.76839)
(10.2793 -6.31007e-24 -1.71193)
(9.874 0 -1.65701)
(9.48927 -1.53798e-24 -1.60364)
(9.12358 1.27818e-20 -1.55182)
(8.77553 2.74382e-24 -1.50153)
(8.44385 0 -1.45275)
(8.12738 0 -1.40544)
(7.82506 0 -1.35956)
(7.53593 0 -1.31507)
(7.25909 0 -1.27191)
(6.99371 0 -1.23004)
(6.73905 0 -1.18941)
(6.49442 -2.44727e-21 -1.14998)
(6.25915 -7.9475e-22 -1.11168)
(6.03266 0 -1.07447)
(5.81439 2.09777e-21 -1.03831)
(5.60383 0 -1.00314)
(5.40049 0 -0.968926)
(5.20393 -1.10898e-20 -0.935612)
(5.01372 0 -0.903159)
(4.82947 1.46687e-20 -0.871523)
(4.65081 0 -0.840663)
(4.47739 3.50533e-20 -0.81054)
(4.30888 2.47495e-23 -0.781113)
(4.14499 0 -0.752347)
(3.9854 0 -0.724202)
(3.82985 0 -0.696646)
(3.67807 4.4497e-20 -0.669642)
(3.52982 -4.569e-20 -0.64316)
(3.38486 -4.66702e-20 -0.617165)
(3.24297 -4.74881e-20 -0.59163)
(3.10394 9.63063e-20 -0.566522)
(2.96758 4.86306e-20 -0.541818)
(2.83369 0 -0.517486)
(2.70209 0 -0.493504)
(2.57262 -2.44558e-23 -0.469846)
(2.44513 0 -0.446492)
(2.31948 0 -0.423421)
(2.19552 -9.77794e-20 -0.400614)
(2.07318 0 -0.378058)
(1.95229 0 -0.355733)
(1.83287 1.90726e-19 -0.333643)
(1.71473 -9.4233e-20 -0.311762)
(1.59799 0 -0.290114)
(1.48244 0 -0.268667)
(1.36835 0 -0.247473)
(1.25543 1.77168e-19 -0.226488)
(1.14416 0 -0.205801)
(1.03417 3.40555e-19 -0.18535)
(0.926134 -1.66588e-19 -0.165269)
(0.819649 0 -0.145475)
(0.715534 0 -0.126145)
(0.613436 1.54819e-19 -0.107185)
(0.514146 -2.57883e-23 -0.0887916)
(0.417643 1.46414e-19 -0.0709008)
(0.324248 -2.84273e-19 -0.0536557)
(0.23482 2.75494e-19 -0.0371157)
(0.148471 2.66723e-19 -0.021233)
(0.0676563 2.57817e-19 -0.00633593)
(-0.0103829 2.88566e-23 0.00796119)
(-0.0814877 0 0.021008)
(-0.149648 -2.31009e-19 0.0334307)
(-0.210712 0 0.0446409)
(-0.268362 0 0.0549072)
(-0.316017 4.08921e-19 0.0640503)
(-0.372773 0 0.0734792)
(-0.387784 0 0.0771023)
(-0.46796 0 0.0915779)
(-0.44978 -3.4175e-19 0.0868596)
(-0.512688 0 0.100519)
(-0.528806 -3.09598e-19 0.100832)
(-0.510679 0 0.0994214)
(-0.612619 0 0.120374)
(-0.570541 0 0.101147)
(-0.457475 0 0.0998245)
(-0.920926 0 0.168011)
(-0.165272 -4.67426e-19 0.0274872)
(-0.956504 -4.10455e-19 0.20384)
(-0.605746 4.15314e-19 0.0943524)
(-0.458661 0 0.10408)
(-1.09106 0 0.203291)
(-0.272396 -1.38256e-18 0.0603957)
(-1.44943 0 0.284462)
(-0.363869 6.29873e-19 0.0507168)
(-1.05151 0 0.246967)
(-1.63465 5.33869e-19 0.270951)
(0.244164 5.63587e-19 -0.0969742)
(-0.701495 0 0.363942)
(-7.02378 -3.45813e-19 1.45104)
(-2.60566 0 0.373515)
(32.6565 4.67506e-21 1.04438)
(33.067 1.13655e-20 1.13054)
(33.5126 -6.9006e-21 1.04673)
(33.8772 -7.83567e-22 0.78258)
(34.0499 7.47578e-21 0.39153)
(33.9747 0 -0.0644848)
(33.6434 0 -0.53635)
(33.0764 -1.63759e-20 -0.988321)
(32.309 -3.04068e-20 -1.39676)
(31.3837 -7.09373e-22 -1.7486)
(30.3441 1.38871e-20 -2.03936)
(29.2309 -1.29561e-20 -2.27038)
(28.079 1.17118e-20 -2.44649)
(26.9167 0 -2.5743)
(25.7656 0 -2.66098)
(24.6413 -9.50162e-21 -2.71355)
(23.5542 3.47537e-20 -2.73842)
(22.5109 3.19717e-20 -2.74115)
(21.5147 0 -2.72647)
(20.567 0 -2.69827)
(19.6677 0 -2.65972)
(18.8156 -6.72059e-23 -2.61336)
(18.0088 -2.05113e-20 -2.56122)
(17.2453 9.30946e-21 -2.50492)
(16.5227 1.69049e-20 -2.44573)
(15.8387 -3.06685e-20 -2.38464)
(15.1907 1.38252e-20 -2.32245)
(14.5766 1.24453e-20 -2.25977)
(13.9942 1.11633e-20 -2.19708)
(13.4412 0 -2.13475)
(12.9159 -8.87974e-21 -2.07306)
(12.4162 7.8433e-21 -2.01223)
(11.9406 -6.8988e-21 -1.95242)
(11.4874 -1.20276e-20 -1.89374)
(11.0552 -2.08004e-20 -1.83628)
(10.6425 0 -1.7801)
(10.2481 0 -1.72522)
(9.87089 -6.21535e-21 -1.67166)
(9.50968 0 -1.61943)
(9.16349 3.93731e-21 -1.56851)
(8.83137 2.93186e-21 -1.51888)
(8.51245 0 -1.47053)
(8.2059 4.6218e-21 -1.42343)
(7.91097 7.4791e-22 -1.37753)
(7.62695 0 -1.33281)
(7.35318 -1.97392e-21 -1.28923)
(7.08902 -3.14219e-21 -1.24674)
(6.83391 0 -1.20531)
(6.5873 1.04039e-20 -1.16489)
(6.34867 -6.07703e-21 -1.12545)
(6.11754 -1.37443e-20 -1.08693)
(5.89345 0 -1.04931)
(5.67599 -2.50477e-23 -1.01253)
(5.46474 3.51869e-20 -0.976566)
(5.25932 0 -0.941367)
(5.05936 0 -0.906896)
(4.86453 -2.02294e-20 -0.873116)
(4.67449 -2.09083e-20 -0.839987)
(4.48894 4.29173e-20 -0.807477)
(4.30758 4.38711e-20 -0.775543)
(4.13013 4.4636e-20 -0.744158)
(3.95633 -4.52423e-20 -0.713282)
(3.78592 -9.13742e-20 -0.682888)
(3.61867 0 -0.652939)
(3.45435 0 -0.623411)
(3.29275 -9.25756e-20 -0.594271)
(3.13366 0 -0.565497)
(2.97694 0 -0.537061)
(2.82235 9.1836e-20 -0.508943)
(2.66983 0 -0.481126)
(2.51914 -9.0409e-20 -0.453587)
(2.3703 -3.2509e-23 -0.426326)
(2.22307 8.84669e-20 -0.399317)
(2.07758 0 -0.372584)
(1.93356 0 -0.34609)
(1.79132 0 -0.319895)
(1.65052 1.66163e-19 -0.293948)
(1.51169 0 -0.268353)
(1.37441 -1.59729e-19 -0.243037)
(1.23947 3.12499e-19 -0.218159)
(1.10637 0 -0.193619)
(0.976091 0 -0.169633)
(0.848214 0 -0.146082)
(0.723681 -2.5495e-23 -0.123212)
(0.602479 -1.37259e-19 -0.100935)
(0.484986 -2.66383e-19 -0.0794419)
(0.372269 -2.58205e-19 -0.0587826)
(0.263232 2.49885e-19 -0.0389292)
(0.160922 0 -0.0202527)
(0.0619019 2.33172e-19 -0.00230773)
(-0.0285499 0 0.0141124)
(-0.115635 2.16378e-19 0.0297997)
(-0.193688 0 0.0439655)
(-0.267897 0 0.0569945)
(-0.32976 0 0.0687806)
(-0.401676 -3.66658e-19 0.0803969)
(-0.425379 -3.50793e-19 0.0860101)
(-0.523696 0 0.103375)
(-0.505759 3.19799e-19 0.0982327)
(-0.586955 -3.04628e-19 0.115983)
(-0.604157 2.89684e-19 0.115208)
(-0.594156 -2.76751e-19 0.116386)
(-0.708152 0 0.139787)
(-0.662518 0 0.115864)
(-0.549714 0 0.122627)
(-1.05914 0 0.190405)
(-0.217283 4.37085e-19 0.0367341)
(-1.12823 1.13227e-23 0.244312)
(-0.687435 -7.76506e-19 0.101173)
(-0.575346 0 0.134028)
(-1.26542 0 0.233768)
(-0.35556 6.4613e-19 0.0804999)
(-1.69739 0 0.333903)
(-0.439171 -5.88618e-19 0.0582217)
(-1.28193 0 0.30847)
(-1.82523 -9.97434e-19 0.290321)
(0.126852 0 -0.0866202)
(-1.09965 0 0.533417)
(-7.90466 3.23043e-19 1.64194)
(-2.31412 0 0.25307)
(32.6802 0 0.691736)
(32.9812 -5.22828e-21 0.734182)
(33.3177 0 0.683853)
(33.6477 -6.58117e-21 0.519999)
(33.9081 -1.34162e-20 0.257454)
(34.0479 0 -0.0720586)
(34.0385 6.69211e-21 -0.437129)
(33.8688 0 -0.811662)
(33.539 9.01744e-22 -1.17546)
(33.0589 -2.57682e-20 -1.51404)
(32.4443 0 -1.81808)
(31.7157 0 -2.08268)
(30.8952 -1.10156e-20 -2.30625)
(30.0053 0 -2.48952)
(29.067 0 -2.63479)
(28.0993 0 -2.74531)
(27.1184 -1.62343e-20 -2.82489)
(26.1377 -1.49503e-20 -2.87748)
(25.1678 -1.35586e-20 -2.90696)
(24.2166 0 -2.91697)
(23.2901 0 -2.91081)
(22.3922 -1.05489e-20 -2.89138)
(21.5255 9.62101e-21 -2.86121)
(20.6914 -8.7558e-21 -2.82243)
(19.8905 -1.58995e-20 -2.77687)
(19.1227 2.87284e-20 -2.72602)
(18.3875 -5.40952e-23 -2.67115)
(17.684 -1.17048e-20 -2.61329)
(17.0112 -1.04989e-20 -2.55329)
(16.3678 0 -2.49184)
(15.7526 0 -2.42951)
(15.1642 -7.37609e-21 -2.36676)
(14.6013 0 -2.30396)
(14.0627 1.13106e-20 -2.2414)
(13.547 9.77884e-21 -2.17933)
(13.053 -8.35715e-21 -2.11793)
(12.5795 0 -2.05734)
(12.1254 5.84415e-21 -1.99768)
(11.6896 4.73158e-21 -1.93903)
(11.2712 3.80324e-24 -1.88145)
(10.869 -5.5178e-21 -1.82498)
(10.4822 0 -1.76965)
(10.1099 -2.17975e-21 -1.71546)
(9.75134 0 -1.66243)
(9.4057 0 -1.61054)
(9.07225 0 -1.55978)
(8.75031 1.38998e-23 -1.51013)
(8.43921 0 -1.46156)
(8.13833 -4.88201e-21 -1.41405)
(7.84709 1.14088e-20 -1.36758)
(7.56493 1.29157e-20 -1.32209)
(7.29132 0 -1.27757)
(7.02576 -1.54539e-20 -1.23397)
(6.76777 -3.30141e-20 -1.19125)
(6.51691 0 -1.14939)
(6.27274 0 -1.10833)
(6.03486 1.90026e-20 -1.06805)
(5.80286 1.96016e-20 -1.0285)
(5.57638 -2.01457e-20 -0.989652)
(5.35507 -4.11347e-20 -0.951456)
(5.13858 0 -0.913885)
(4.9266 0 -0.876895)
(4.71881 2.86643e-23 -0.840458)
(4.51493 -4.31572e-20 -0.804533)
(4.31467 0 -0.769092)
(4.11779 4.34384e-20 -0.734099)
(3.92401 0 -0.699527)
(3.73315 0 -0.665347)
(3.54494 0 -0.631533)
(3.35927 0 -0.598066)
(3.17586 3.45015e-23 -0.564921)
(2.99471 -3.22213e-23 -0.532095)
(2.81551 -8.29303e-20 -0.499558)
(2.63843 0 -0.467337)
(2.4631 -8.06027e-20 -0.43539)
(2.28989 0 -0.403785)
(2.11838 -1.55811e-19 -0.372463)
(1.94919 1.52794e-19 -0.341544)
(1.7818 -1.49672e-19 -0.310941)
(1.61712 -1.46453e-19 -0.280843)
(1.45458 0 -0.251129)
(1.29529 1.39552e-19 -0.222056)
(1.13878 0 -0.193481)
(0.986141 -1.32325e-19 -0.165702)
(0.837369 -1.28554e-19 -0.138601)
(0.692907 2.49548e-19 -0.112427)
(0.554034 0 -0.0872114)
(0.419452 -4.68051e-19 -0.0629611)
(0.292823 0 -0.0400747)
(0.170008 2.18287e-19 -0.0180672)
(0.0574905 0 0.00213179)
(-0.0512512 2.02529e-19 0.0214981)
(-0.148836 0 0.0389967)
(-0.242187 3.73816e-19 0.0551575)
(-0.320662 -3.58249e-19 0.0699821)
(-0.409862 3.43119e-19 0.0840106)
(-0.444876 3.28238e-19 0.0921524)
(-0.562672 0 0.112456)
(-0.547193 -5.98332e-19 0.107256)
(-0.648876 5.69896e-19 0.12954)
(-0.667266 0 0.127463)
(-0.669331 2.58828e-19 0.132145)
(-0.793197 0 0.157452)
(-0.747622 0 0.129021)
(-0.638554 -4.41998e-19 0.145773)
(-1.18475 0 0.20961)
(-0.27425 0 0.0472401)
(-1.29134 3.58717e-19 0.284131)
(-0.761511 7.25662e-19 0.105052)
(-0.69831 3.31568e-19 0.167041)
(-1.42568 0 0.260879)
(-0.447867 0 0.103537)
(-1.93242 0 0.380943)
(-0.518765 0 0.0656989)
(-1.51371 4.82672e-19 0.372816)
(-1.98961 4.65789e-19 0.30238)
(-0.0378664 0 -0.0653496)
(-1.52034 0 0.722183)
(-8.62281 0 1.79323)
(-1.77725 0 0.0664006)
(32.6784 4.17815e-21 0.403823)
(32.9101 0 0.419021)
(33.1655 4.89591e-21 0.377626)
(33.4299 0 0.263618)
(33.6724 5.99909e-21 0.0775508)
(33.8615 0 -0.165874)
(33.9743 -6.28973e-21 -0.447521)
(33.9958 1.15294e-20 -0.749457)
(33.9167 2.35415e-20 -1.05652)
(33.7324 7.29322e-22 -1.35673)
(33.4423 0 -1.64108)
(33.05 0 -1.90334)
(32.5619 0 -2.13967)
(31.9873 0 -2.34798)
(31.3372 0 -2.52753)
(30.6237 0 -2.67858)
(29.8591 1.46252e-20 -2.80216)
(29.0559 -1.35473e-20 -2.89986)
(28.2255 1.27397e-20 -2.97364)
(27.3785 0 -3.02575)
(26.5241 0 -3.05849)
(25.6701 9.71161e-21 -3.07422)
(24.823 8.88084e-21 -3.07518)
(23.988 8.10061e-21 -3.06347)
(23.1691 0 -3.04103)
(22.3693 -1.34635e-20 -3.00961)
(21.5908 -2.42578e-20 -2.97074)
(20.835 1.08992e-20 -2.92577)
(20.103 0 -2.87588)
(19.3951 0 -2.82207)
(18.7114 0 -2.7652)
(18.0518 6.89538e-21 -2.706)
(17.4158 0 -2.64509)
(16.803 0 -2.58299)
(16.2126 9.16104e-21 -2.52014)
(15.644 7.85076e-21 -2.45689)
(15.0964 0 -2.39355)
(14.5689 5.48606e-21 -2.33037)
(14.0608 -8.88753e-21 -2.26754)
(13.5711 -3.48077e-21 -2.20523)
(13.0991 2.59364e-21 -2.14358)
(12.6439 0 -2.08269)
(12.2048 0 -2.02263)
(11.7809 0 -1.96348)
(11.3716 -5.5789e-22 -1.90526)
(10.976 0 -1.84802)
(10.5935 2.76034e-21 -1.79177)
(10.2235 3.69787e-21 -1.73652)
(9.86522 0 -1.68227)
(9.51809 -5.34972e-21 -1.629)
(9.18152 0 -1.57672)
(8.85493 0 -1.52539)
(8.53778 -1.44625e-20 -1.475)
(8.22952 2.19022e-23 -1.42552)
(7.92967 1.63467e-20 -1.37692)
(7.63774 0 -1.32917)
(7.35326 0 -1.28223)
(7.07578 -1.8396e-20 -1.23608)
(6.80488 0 -1.19067)
(6.54014 3.85996e-20 -1.14598)
(6.28119 0 -1.10196)
(6.02763 0 -1.05858)
(5.77912 8.03817e-20 -1.0158)
(5.53529 8.09456e-20 -0.973584)
(5.29583 4.06305e-20 -0.931905)
(5.06044 0 -0.890719)
(4.82878 0 -0.850002)
(4.60064 4.05521e-20 -0.809717)
(4.37568 8.07059e-20 -0.76984)
(4.15376 0 -0.730347)
(3.93456 7.95009e-20 -0.69121)
(3.71804 -7.86804e-20 -0.652427)
(3.50385 7.77417e-20 -0.613963)
(3.29215 -7.66663e-20 -0.575847)
(3.0825 7.55465e-20 -0.538034)