/*--------------------------------*- C++ -*----------------------------------*\
| =========                 |                                                 |
| \\      /  F ield         | OpenFOAM: The Open Source CFD Toolbox           |
|  \\    /   O peration     | Version:  2412                                  |
|   \\  /    A nd           | Website:  www.openfoam.com                      |
|    \\/     M anipulation  |                                                 |
\*---------------------------------------------------------------------------*/
FoamFile
{
    version     2.0;
    format      ascii;
    arch        "LSB;label=32;scalar=64";
    class       volVectorField;
    location    "1.48";
    object      U;
}
// * * * * * * * * * * * * * * * * * * * * * * * * * * * * * * * * * * * * * //

dimensions      [0 1 -1 0 0 0 0];

internalField   nonuniform List<vector> 
12600
(
(18.7519 1.24313e-21 2.09743)
(11.6259 1.60976e-20 0.452011)
(7.35434 1.89226e-20 -0.477737)
(5.09102 0 -0.709383)
(3.9772 1.70946e-20 -0.682474)
(3.336 1.59149e-20 -0.60771)
(2.89442 0 -0.53997)
(2.56293 0 -0.484452)
(2.3031 -4.7793e-20 -0.438935)
(2.09278 0 -0.401147)
(1.91824 2.0032e-20 -0.369237)
(1.77057 1.83355e-20 -0.341874)
(1.64363 -1.67907e-20 -0.318109)
(1.53309 0 -0.297244)
(1.43576 -1.40611e-20 -0.278753)
(1.34926 0 -0.262234)
(1.27175 4.72044e-20 -0.247371)
(1.20181 0 -0.233912)
(1.13829 -1.97353e-20 -0.221658)
(1.0803 -1.80387e-20 -0.210443)
(1.02709 1.64563e-20 -0.200134)
(0.97805 5.33994e-24 -0.190618)
(0.93267 0 -0.1818)
(0.890527 -2.47694e-20 -0.173603)
(0.85126 0 -0.165959)
(0.814562 0 -0.15881)
(0.78017 -1.83075e-20 -0.152105)
(0.747856 0 -0.145803)
(0.717421 4.15702e-24 -0.139865)
(0.688693 1.31734e-20 -0.134259)
(0.661519 1.17069e-20 -0.128955)
(0.635766 1.03489e-20 -0.123927)
(0.611315 -9.09167e-21 -0.119153)
(0.588059 -1.58566e-20 -0.114612)
(0.565904 -1.37045e-20 -0.110286)
(0.544765 1.17042e-20 -0.106158)
(0.524565 0 -0.102214)
(0.505235 -8.18012e-21 -0.0984402)
(0.486713 0 -0.0948245)
(0.46894 5.1722e-21 -0.0913556)
(0.451865 0 -0.0880235)
(0.43544 1.76376e-23 -0.0848188)
(0.419622 0 -0.0817331)
(0.404369 1.60496e-23 -0.0787584)
(0.389646 -9.59113e-22 -0.0758877)
(0.375417 2.66792e-21 -0.0731138)
(0.361651 -4.25513e-21 -0.070431)
(0.348317 0 -0.067833)
(0.33539 0 -0.065315)
(0.322841 -8.16734e-21 -0.0628712)
(0.310649 -1.84646e-20 -0.0604977)
(0.298788 -2.03817e-20 -0.0581892)
(0.28724 1.95511e-23 -0.0559425)
(0.275982 -2.36163e-20 -0.0537526)
(0.264999 0 -0.0516171)
(0.254268 2.61981e-20 -0.049531)
(0.243779 2.72501e-20 -0.0474927)
(0.233508 2.81482e-20 -0.0454972)
(0.22345 0 -0.0435437)
(0.213578 0 -0.0416271)
(0.203894 0 -0.0397474)
(0.19437 -6.12082e-20 -0.0378991)
(0.18501 0 -0.0360834)
(0.175785 0 -0.0342943)
(0.166706 1.25524e-19 -0.0325339)
(0.15774 0 -0.030796)
(0.148904 0 -0.0290836)
(0.140164 0 -0.0273902)
(0.131541 -1.25402e-19 -0.0257196)
(0.123001 1.2475e-19 -0.0240656)
(0.114567 1.23883e-19 -0.0224323)
(0.106211 2.35173e-23 -0.0208144)
(0.0979555 -1.21565e-19 -0.0192161)
(0.0897797 0 -0.0176333)
(0.0817032 1.18563e-19 -0.0160698)
(0.0737185 0 -0.0145241)
(0.0658376 0 -0.0129984)
(0.0580712 0 -0.0114948)
(0.0504207 2.86086e-23 -0.0100135)
(0.0429168 2.17388e-19 -0.00856034)
(0.035553 2.12772e-19 -0.00713408)
(0.0283694 -2.07973e-19 -0.00574227)
(0.0213744 -2.03023e-19 -0.00438671)
(0.0145747 0 -0.00306841)
(0.00806295 0 -0.00180548)
(0.00169996 3.74861e-19 -0.000570699)
(-0.00417315 -7.27994e-19 0.000569635)
(-0.010082 7.06012e-19 0.00171731)
(-0.0151188 3.41903e-19 0.00269682)
(-0.0206027 0 0.00376333)
(-0.0246001 -6.38825e-19 0.00454299)
(-0.0296901 3.08066e-19 0.00553363)
(-0.0325663 -2.96804e-19 0.00609755)
(-0.0371312 5.71002e-19 0.0069867)
(-0.039182 0 0.00739152)
(-0.0426826 0 0.00807576)
(-0.0446175 0 0.00845481)
(-0.0471456 0 0.00894355)
(-0.0467798 0 0.00888731)
(-0.054766 0 0.0104008)
(-0.040649 -4.22182e-19 0.007742)
(-0.0639117 -7.95174e-19 0.0121972)
(-0.0483662 -7.67968e-19 0.00909707)
(-0.0500978 0 0.00960833)
(-0.0628827 0 0.0119931)
(-0.0460976 0 0.00880415)
(-0.0665237 -6.16052e-19 0.0127301)
(-0.0549906 -1.18408e-18 0.0103591)
(-0.0378187 5.57124e-19 0.00747419)
(-0.0986077 0 0.018807)
(-0.0330252 -1.02684e-18 0.00612987)
(-0.0587968 0 0.011666)
(-0.117264 -8.95495e-19 0.0220937)
(0.00407959 8.51299e-19 -0.000667362)
(-0.130251 -7.63162e-19 0.0252004)
(-0.0385066 -7.51255e-19 0.007646)
(-0.201054 6.43899e-19 0.0395824)
(-0.366489 -1.0104e-22 0.0696905)
(-0.398471 6.60262e-19 0.0751333)
(-0.170494 0 0.0312295)
(29.1655 -1.25494e-21 4.03045)
(25.1185 0 1.86112)
(20.2526 -1.91517e-20 -0.212509)
(16.083 0 -1.21198)
(13.1212 -1.73218e-20 -1.50778)
(11.0769 -3.04031e-20 -1.51879)
(9.60357 -1.40691e-20 -1.44109)
(8.49078 0 -1.34339)
(7.61732 3.55892e-22 -1.24792)
(6.91033 -2.1855e-20 -1.16078)
(6.32411 2.00598e-20 -1.08265)
(5.82862 1.84096e-20 -1.01279)
(5.40322 -1.68926e-20 -0.95019)
(5.03323 1.54971e-20 -0.893881)
(4.7079 2.84806e-20 -0.842996)
(4.41913 0 -0.796802)
(4.16075 -6.44195e-23 -0.754679)
(3.9279 2.18515e-20 -0.716103)
(3.71674 2.00224e-20 -0.680637)
(3.5242 0 -0.647908)
(3.34777 0 -0.6176)
(3.18537 1.52008e-20 -0.589445)
(3.03528 0 -0.563212)
(2.89608 1.25563e-20 -0.538701)
(2.76653 -2.27515e-20 -0.515742)
(2.6456 0 -0.494184)
(2.53241 1.85561e-20 -0.473895)
(2.42617 0 -0.454762)
(2.32623 -1.49476e-20 -0.436683)
(2.23199 -2.66882e-20 -0.419567)
(2.14296 -2.3713e-20 -0.403336)
(2.05867 -1.04749e-20 -0.387917)
(1.97872 9.19988e-21 -0.373247)
(1.90277 3.20993e-20 -0.359269)
(1.83048 2.77368e-20 -0.34593)
(1.76158 0 -0.333185)
(1.69581 0 -0.32099)
(1.63293 -1.74372e-23 -0.309306)
(1.57274 0 -0.2981)
(1.51504 -5.22155e-21 -0.287337)
(1.45967 0 -0.276989)
(1.40645 -5.29048e-21 -0.267029)
(1.35525 0 -0.257431)
(1.30592 -9.49146e-22 -0.248171)
(1.25836 0 -0.23923)
(1.21243 -2.68643e-21 -0.230585)
(1.16804 0 -0.22222)
(1.12508 0 -0.214116)
(1.08347 6.99286e-21 -0.206258)
(1.04312 0 -0.198629)
(1.00395 0 -0.191217)
(0.965874 0 -0.184006)
(0.928842 2.2151e-20 -0.176986)
(0.892767 4.7322e-20 -0.170143)
(0.857608 0 -0.163468)
(0.823282 0 -0.156947)
(0.789761 -2.72259e-20 -0.150574)
(0.756962 -2.81469e-20 -0.144335)
(0.72487 0 -0.138227)
(0.6934 0 -0.132233)
(0.662551 0 -0.126355)
(0.632233 0 -0.120575)
(0.602462 -6.16199e-20 -0.114897)
(0.57314 6.20889e-20 -0.109302)
(0.5443 -1.2481e-19 -0.103797)
(0.51584 0 -0.0983621)
(0.487805 0 -0.0930071)
(0.460092 0 -0.0877111)
(0.432759 4.75544e-23 -0.0824869)
(0.405703 -1.23557e-19 -0.0773138)
(0.378993 -1.22586e-19 -0.0722061)
(0.352536 2.42798e-19 -0.0671453)
(0.326403 3.60148e-23 -0.062146)
(0.300524 -1.18517e-19 -0.0571943)
(0.274961 -1.16876e-19 -0.0523026)
(0.249683 0 -0.0474653)
(0.224732 0 -0.0426899)
(0.20013 0 -0.0379824)
(0.175891 2.17734e-19 -0.0333427)
(0.152094 0 -0.02879)
(0.128731 0 -0.0243183)
(0.105911 2.03547e-19 -0.0199542)
(0.0836716 1.9849e-19 -0.0156981)
(0.0620223 0 -0.0115604)
(0.0412545 0 -0.0075868)
(0.0209407 0 -0.00370732)
(0.00212156 7.08585e-19 -0.00010771)
(-0.0167953 -4.25156e-23 0.00350214)
(-0.0330529 3.32033e-19 0.00660977)
(-0.0506557 -3.20772e-19 0.00996697)
(-0.0637074 6.1909e-19 0.0124573)
(-0.0800978 2.98201e-19 0.015585)
(-0.0896426 5.74035e-19 0.0173981)
(-0.104457 0 0.0202301)
(-0.111307 0 0.0215212)
(-0.122966 0 0.0237503)
(-0.129258 0 0.0249531)
(-0.137763 4.64725e-19 0.0265198)
(-0.137597 0 0.0265884)
(-0.161022 0 0.0308802)
(-0.121624 -4.04824e-19 0.0234483)
(-0.190553 3.80868e-19 0.0368964)
(-0.141643 1.46986e-18 0.026754)
(-0.15286 -6.92474e-19 0.0296943)
(-0.186989 0 0.0359162)
(-0.139796 0 0.0268327)
(-0.200535 0 0.0388138)
(-0.163128 5.63932e-19 0.0306774)
(-0.124447 -5.30217e-19 0.0246868)
(-0.289796 0 0.0559013)
(-0.100975 1.95116e-18 0.0183014)
(-0.187473 8.67192e-19 0.0379222)
(-0.341831 1.69876e-18 0.0644577)
(-0.00212537 0 0.000394231)
(-0.403449 0 0.0786241)
(-0.135871 -7.11142e-19 0.0269034)
(-0.629535 0 0.127064)
(-1.0657 -6.12908e-19 0.207606)
(-1.12404 -6.23115e-19 0.213433)
(-0.450175 0 0.0822034)
(31.9092 0 3.90232)
(31.0932 0 2.82312)
(28.5612 -1.29699e-20 1.02628)
(25.2156 0 -0.381609)
(21.9614 0 -1.22616)
(19.1867 1.51144e-20 -1.65116)
(16.9272 1.33235e-20 -1.8195)
(15.1012 0 -1.85105)
(13.6129 4.20781e-22 -1.81727)
(12.3822 2.07046e-20 -1.75468)
(11.3484 -3.77999e-20 -1.68082)
(10.4673 -1.7443e-20 -1.60404)
(9.70656 1.14502e-22 -1.52831)
(9.04239 -1.46847e-20 -1.45551)
(8.45683 -1.34674e-20 -1.38641)
(7.93616 1.22958e-20 -1.32127)
(7.4697 -2.26198e-20 -1.26008)
(7.04901 -2.07074e-20 -1.20267)
(6.66737 0 -1.14883)
(6.3193 0 -1.09832)
(6.00034 1.5767e-20 -1.05088)
(5.70681 1.43729e-20 -1.00627)
(5.43561 0 -0.964277)
(5.18416 0 -0.924683)
(4.95026 2.15584e-20 -0.8873)
(4.73202 0 -0.851953)
(4.52785 -3.51592e-20 -0.818482)
(4.33634 1.58078e-20 -0.786743)
(4.15629 0 -0.756605)
(3.98662 1.26454e-20 -0.727948)
(3.82642 1.1236e-20 -0.700665)
(3.67485 0 -0.674655)
(3.53119 -8.72832e-21 -0.649829)
(3.39479 -1.52109e-20 -0.626105)
(3.26508 1.22235e-23 -0.603407)
(3.14152 0 -0.581667)
(3.02365 0 -0.560822)
(2.91106 7.84257e-21 -0.540812)
(2.80334 0 -0.521584)
(2.70017 0 -0.503089)
(2.60121 0 -0.485281)
(2.50618 0 -0.468116)
(2.41482 0 -0.451556)
(2.32687 0 -0.435564)
(2.24211 0 -0.420105)
(2.16034 2.4993e-21 -0.405147)
(2.08135 -3.99854e-21 -0.390661)
(2.00497 0 -0.376617)
(1.93105 -6.6159e-21 -0.362991)
(1.8594 0 -0.349755)
(1.7899 0 -0.336889)
(1.7224 1.92677e-20 -0.324366)
(1.65679 0 -0.312172)
(1.59292 -2.23583e-20 -0.300279)
(1.53072 2.36111e-20 -0.288676)
(1.47003 0 -0.277338)
(1.41081 2.57344e-20 -0.266256)
(1.3529 0 -0.255404)
(1.29628 0 -0.244779)
(1.24079 0 -0.234352)
(1.18643 5.67637e-20 -0.224127)
(1.13303 5.75578e-20 -0.21407)
(1.08063 2.8561e-23 -0.204191)
(1.02906 -1.17232e-19 -0.194455)
(0.978352 2.50504e-23 -0.184877)
(0.928342 0 -0.17542)
(0.879102 0 -0.166103)
(0.830448 -1.17719e-19 -0.156887)
(0.782481 3.83012e-23 -0.147797)
(0.735016 0 -0.138795)
(0.688172 0 -0.129907)
(0.641781 -1.14464e-19 -0.121099)
(0.595967 2.89807e-23 -0.112398)
(0.550597 2.69697e-23 -0.103777)
(0.505788 0 -0.0952608)
(0.461468 0 -0.0868362)
(0.417721 -2.13042e-19 -0.0785177)
(0.374566 2.09117e-19 -0.0703138)
(0.332038 0 -0.0622253)
(0.290255 0 -0.0542843)
(0.24922 0 -0.0464795)
(0.209096 0 -0.0388588)
(0.169966 0 -0.0314176)
(0.131829 0 -0.0241822)
(0.0951946 0 -0.0172175)
(0.0593307 0 -0.0104239)
(0.0260068 -6.66172e-19 -0.00409073)
(-0.00746748 -3.2263e-19 0.0022404)
(-0.0364258 -3.12068e-19 0.00773883)
(-0.0676408 3.01422e-19 0.0136333)
(-0.0911024 -5.81572e-19 0.0180792)
(-0.120239 -2.80098e-19 0.0235848)
(-0.137619 -2.69527e-19 0.0268529)
(-0.164109 0 0.0318811)
(-0.176657 0 0.0341986)
(-0.197913 0 0.0382535)
(-0.209201 0 0.040378)
(-0.224877 -4.35989e-19 0.043198)
(-0.225891 0 0.043743)
(-0.264619 0 0.0504197)
(-0.202708 3.79574e-19 0.0392155)
(-0.316704 0 0.0614429)
(-0.232443 -6.88816e-19 0.0431845)
(-0.259233 6.48927e-19 0.0508053)
(-0.310218 0 0.0592997)
(-0.236155 0 0.0452779)
(-0.336637 0 0.0652949)
(-0.271153 5.28053e-19 0.049999)
(-0.222419 0 0.0453097)
(-0.47676 -4.57593e-19 0.0915246)
(-0.173187 -1.61879e-23 0.0302363)
(-0.32773 -8.11601e-19 0.0686001)
(-0.559661 -1.58943e-18 0.103114)
(-0.0251554 0 0.0056742)
(-0.691766 6.76227e-19 0.136089)
(-0.254936 6.65187e-19 0.0524474)
(-1.08409 5.69771e-19 0.226663)
(-1.73065 0 0.339269)
(-1.7872 5.82635e-19 0.330941)
(-0.667796 0 0.113186)
(32.4303 0 2.96096)
(32.9954 0 2.77371)
(32.4408 1.22609e-20 1.72781)
(30.7957 0 0.524962)
(28.5399 -1.22988e-20 -0.481587)
(26.1208 2.50141e-20 -1.20555)
(23.7985 0 -1.66927)
(21.6896 -2.18239e-20 -1.9338)
(19.8275 2.09211e-20 -2.06317)
(18.2027 1.89139e-20 -2.10751)
(16.7877 1.77722e-20 -2.1007)
(15.5513 -1.61485e-20 -2.06404)
(14.4649 1.50294e-20 -2.01049)
(13.5041 -2.73912e-20 -1.94791)
(12.649 0 -1.881)
(11.8831 -2.31951e-20 -1.81267)
(11.1932 0 -1.74464)
(10.5683 0 -1.67798)
(9.99952 0 -1.61329)
(9.47945 1.6292e-20 -1.55091)
(9.00193 -3.41135e-23 -1.49101)
(8.56178 -2.59334e-23 -1.43364)
(8.15465 1.23529e-20 -1.37879)
(7.77682 0 -1.32638)
(7.42513 0 -1.27634)
(7.09685 0 -1.22855)
(6.78963 3.32383e-20 -1.18292)
(6.50141 -5.88965e-24 -1.13932)
(6.23042 0 -1.09765)
(5.97508 0 -1.05779)
(5.73401 0 -1.01965)
(5.50599 0 -0.983118)
(5.28991 1.651e-20 -0.948105)
(5.08482 0 -0.914523)
(4.88985 -1.24389e-20 -0.882286)
(4.7042 0 -0.851317)
(4.52719 0 -0.821541)
(4.35816 -7.4374e-21 -0.792889)
(4.19654 0 -0.765296)
(4.04181 0 -0.738702)
(3.89348 3.50808e-21 -0.713049)
(3.75112 -4.80493e-21 -0.688283)
(3.61432 0 -0.664354)
(3.48272 -9.15143e-22 -0.641214)
(3.35596 0 -0.61882)
(3.23374 -4.70276e-21 -0.597127)
(3.11576 1.8952e-23 -0.576099)
(3.00174 0 -0.555694)
(2.89145 0 -0.535881)
(2.78463 7.27304e-21 -0.516621)
(2.68109 1.64523e-20 -0.497889)
(2.58058 -3.63579e-20 -0.479646)
(2.48294 0 -0.461873)
(2.38797 -2.10576e-20 -0.444532)
(2.29552 -2.2288e-20 -0.427609)
(2.20539 -2.3322e-20 -0.411065)
(2.11748 -2.4245e-20 -0.394892)
(2.03159 0 -0.379049)
(1.94765 0 -0.363536)
(1.86544 -5.25759e-20 -0.348309)
(1.78495 -1.07055e-19 -0.333374)
(1.70595 -5.42868e-20 -0.318685)
(1.62845 3.06451e-23 -0.304253)
(1.55222 5.52575e-20 -0.290031)
(1.47731 5.55106e-20 -0.276037)
(1.40346 0 -0.26222)
(1.33079 0 -0.248606)
(1.25901 1.10936e-19 -0.23514)
(1.18827 2.20837e-19 -0.221857)
(1.11829 0 -0.208701)
(1.04925 1.08806e-19 -0.195711)
(0.980886 1.07739e-19 -0.182837)
(0.913388 1.06541e-19 -0.170118)
(0.846545 2.10293e-19 -0.157514)
(0.780533 0 -0.14506)
(0.715228 0 -0.132737)
(0.650764 2.00478e-19 -0.120566)
(0.587143 -3.93457e-19 -0.108558)
(0.524434 -1.92781e-19 -0.0967146)
(0.462777 0 -0.0850802)
(0.402199 0 -0.07364)
(0.342906 0 -0.0624619)
(0.285039 0 -0.0515373)
(0.228577 0 -0.0409098)
(0.174261 0 -0.0306609)
(0.121044 -3.22618e-19 -0.0206683)
(0.0714496 4.09075e-23 -0.0113158)
(0.0216629 3.0294e-19 -0.00199486)
(-0.0216836 0 0.00617434)
(-0.0682069 2.82932e-19 0.0148606)
(-0.103642 2.72942e-19 0.0215171)
(-0.147168 0 0.0296472)
(-0.173747 -2.52866e-19 0.0345886)
(-0.213536 -4.85744e-19 0.0420651)
(-0.232851 0 0.0455628)
(-0.265351 0 0.0517215)
(-0.282392 0 0.0548619)
(-0.306668 -4.08698e-19 0.0591202)
(-0.309938 0 0.0604349)
(-0.36398 0 0.0691925)
(-0.282674 3.55661e-19 0.055118)
(-0.440601 -3.34465e-19 0.0858058)
(-0.319869 0 0.0588123)
(-0.368334 0 0.0728834)
(-0.430994 0 0.0821528)
(-0.33468 0 0.0643014)
(-0.473456 0 0.092129)
(-0.378775 -2.50215e-23 0.0689)
(-0.330687 0 0.0686155)
(-0.657824 4.28201e-19 0.126052)
(-0.250795 -8.5438e-19 0.0425746)
(-0.47805 0 0.102812)
(-0.769726 1.0413e-22 0.13937)
(-0.0676951 0 0.015152)
(-0.992817 1.08869e-23 0.197175)
(-0.395446 0 0.0833246)
(-1.55703 -5.32716e-19 0.335382)
(-2.34631 0 0.464344)
(-2.38211 5.44091e-19 0.433119)
(-0.814454 0 0.127458)
(32.5322 0 2.10914)
(33.2893 0 2.23372)
(33.6353 0 1.75754)
(33.27 0 0.962255)
(32.2457 1.16092e-20 0.119205)
(30.7697 -9.02049e-22 -0.63104)
(29.0479 0 -1.23301)
(27.2391 2.05988e-20 -1.67751)
(25.4532 0 -1.98174)
(23.7564 -3.5204e-20 -2.17396)
(22.1811 0 -2.2828)
(20.7375 1.52453e-20 -2.33231)
(19.423 0 -2.34081)
(18.2289 2.58616e-20 -2.32157)
(17.144 -1.17764e-20 -2.28391)
(16.1567 2.1755e-20 -2.23429)
(15.2561 -1.99102e-20 -2.17716)
(14.4322 -1.82705e-20 -2.11558)
(13.6763 0 -2.05166)
(12.9805 -1.53841e-20 -1.98687)
(12.3384 -1.40502e-20 -1.92218)
(11.7439 -2.55893e-20 -1.85829)
(11.192 -1.16644e-20 -1.79566)
(10.6784 0 -1.73457)
(10.1991 0 -1.67522)
(9.75087 0 -1.61771)
(9.3307 -1.56874e-20 -1.56209)
(8.936 -1.41101e-20 -1.50838)
(8.56449 0 -1.45655)
(8.21414 0 -1.40658)
(7.88314 1.00338e-20 -1.3584)
(7.56989 0 -1.31196)
(7.27295 1.44073e-24 -1.2672)
(6.99102 -1.36009e-20 -1.22405)
(6.72296 1.17584e-20 -1.18244)
(6.46771 0 -1.1423)
(6.22432 0 -1.10358)
(5.99194 7.01958e-21 -1.06619)
(5.76978 0 -1.03007)
(5.55712 0 -0.995175)
(5.35332 -3.31045e-21 -0.96143)
(5.15777 4.53396e-21 -0.928782)
(4.96993 0 -0.897176)
(4.78927 8.63421e-22 -0.866557)
(4.61535 0 -0.836878)
(4.44772 2.20884e-21 -0.808087)
(4.28598 3.54527e-21 -0.780142)
(4.12975 0 -0.752992)
(3.97869 5.84597e-21 -0.726604)
(3.83247 -6.85889e-21 -0.700927)
(3.6908 -3.09983e-20 -0.675932)
(3.55336 1.71269e-20 -0.651572)
(3.41993 -1.8542e-20 -0.627824)
(3.2902 2.55198e-23 -0.604638)
(3.164 0 -0.581999)
(3.04103 2.19819e-20 -0.559857)
(2.92117 2.28495e-20 -0.538203)
(2.80411 -2.3577e-20 -0.516984)
(2.68978 2.42149e-20 -0.4962)
(2.57788 4.95341e-20 -0.475793)
(2.46838 5.04085e-20 -0.455773)
(2.36096 -5.10718e-20 -0.436078)
(2.25565 5.16337e-20 -0.416727)
(2.1521 0 -0.397651)
(2.0504 0 -0.378881)
(1.9502 5.23189e-20 -0.360344)
(1.85162 0 -0.342079)
(1.7543 0 -0.32401)
(1.65843 -1.03896e-19 -0.306185)
(1.56361 0 -0.288527)
(1.4701 -1.0237e-19 -0.271091)
(1.37751 -2.02671e-19 -0.253806)
(1.28612 0 -0.236728)
(1.19561 -9.88712e-20 -0.219799)
(1.10623 0 -0.20307)
(1.01779 0 -0.186509)
(0.930476 -1.88365e-19 -0.17015)
(0.844268 1.84882e-19 -0.153999)
(0.759275 3.92869e-23 -0.138067)
(0.675645 0 -0.122404)
(0.593441 0 -0.106994)
(0.512898 0 -0.0919269)
(0.434231 -1.64794e-19 -0.0771868)
(0.357382 1.60421e-19 -0.0628409)
(0.28335 0 -0.0489785)
(0.210751 6.05646e-19 -0.0354697)
(0.142893 2.93607e-19 -0.022773)
(0.0748123 -5.68528e-19 -0.0101594)
(0.0151588 -2.74854e-19 0.0009983)
(-0.0485948 -5.30812e-19 0.0127639)
(-0.0977971 0 0.0219291)
(-0.157577 0 0.0329623)
(-0.194942 2.37103e-19 0.0398345)
(-0.24987 4.55392e-19 0.0500498)
(-0.27722 -4.36842e-19 0.0549088)
(-0.322838 0 0.0634999)
(-0.346526 0 0.0677706)
(-0.381089 3.82925e-19 0.0737055)
(-0.387773 3.65241e-19 0.0761505)
(-0.45737 0 0.0866368)
(-0.360016 -3.33085e-19 0.0708103)
(-0.560282 3.13189e-19 0.109449)
(-0.403052 0 0.0732154)
(-0.478907 0 0.0957404)
(-0.547659 0 0.103883)
(-0.434749 0 0.0837295)
(-0.609388 0 0.118886)
(-0.485785 -4.62438e-19 0.0871142)
(-0.447539 0 0.0945696)
(-0.831644 0 0.158573)
(-0.334781 0 0.0555211)
(-0.636287 7.10172e-19 0.14041)
(-0.971617 6.94988e-19 0.172242)
(-0.131534 0 0.030003)
(-1.3033 -5.91229e-19 0.261386)
(-0.555562 0 0.12006)
(-2.03856 -4.98027e-19 0.451631)
(-2.89771 0 0.577626)
(-2.90649 -5.08474e-19 0.514054)
(-0.882355 0 0.119797)
(32.6036 -4.97135e-21 1.49566)
(33.1864 -6.17348e-21 1.63442)
(33.7125 7.33286e-21 1.44255)
(33.9374 8.26497e-21 0.980666)
(33.7441 0 0.387797)
(33.1441 -9.90941e-21 -0.229021)
(32.2112 0 -0.803944)
(31.0361 1.74031e-20 -1.29992)
(29.7077 1.66376e-20 -1.70152)
(28.3024 3.20872e-20 -2.00916)
(26.8797 -1.47603e-20 -2.23257)
(25.4818 1.37712e-20 -2.38524)
(24.1361 0 -2.48114)
(22.8581 0 -2.53289)
(21.655 1.11026e-20 -2.55115)
(20.5286 -1.14541e-22 -2.54446)
(19.4775 1.76006e-22 -2.51948)
(18.4979 1.35828e-22 -2.48128)
(17.5854 0 -2.43372)
(16.7351 0 -2.37968)
(15.9421 0 -2.32131)
(15.2017 2.40442e-20 -2.26022)
(14.5094 1.09337e-20 -2.19763)
(13.8611 0 -2.13441)
(13.2531 0 -2.07122)
(12.682 1.63374e-20 -2.00856)
(12.1447 0 -1.94677)
(11.6383 0 -1.8861)
(11.1605 0 -1.82673)
(10.7088 0 -1.76879)
(10.2813 -6.3168e-24 -1.71234)
(9.87605 0 -1.65743)
(9.49137 -1.54321e-24 -1.60407)
(9.12573 1.28208e-20 -1.55226)
(8.77773 2.73615e-24 -1.50198)
(8.44611 0 -1.45321)
(8.12971 0 -1.40592)
(7.82745 0 -1.36005)
(7.53839 0 -1.31557)
(7.26161 0 -1.27242)
(6.99632 0 -1.23057)
(6.74173 0 -1.18996)
(6.49718 -2.50451e-21 -1.15054)
(6.262 -8.50056e-22 -1.11226)
(6.0356 0 -1.07507)
(5.81742 2.04618e-21 -1.03892)
(5.60696 0 -1.00378)
(5.40372 0 -0.969577)
(5.20727 -1.0997e-20 -0.936287)
(5.01717 0 -0.903852)
(4.83304 1.45824e-20 -0.872243)
(4.65449 0 -0.841403)
(4.48122 3.48925e-20 -0.811309)
(4.31283 2.47418e-23 -0.781903)
(4.14909 0 -0.753169)
(3.98962 0 -0.725046)
(3.83425 0 -0.697526)
(3.6826 4.43613e-20 -0.670545)
(3.53456 -4.5559e-20 -0.644104)
(3.38973 -4.65432e-20 -0.618132)
(3.24807 -4.73654e-20 -0.592644)
(3.10918 9.60684e-20 -0.56756)
(2.97307 4.85159e-20 -0.542907)
(2.83931 0 -0.518599)
(2.708 0 -0.494675)
(2.57868 -2.44475e-23 -0.471043)
(2.45151 0 -0.447753)
(2.326 0 -0.424707)
(2.2024 -9.75944e-20 -0.401969)
(2.0802 0 -0.37944)
(1.9597 0 -0.35719)
(1.84043 1.90398e-19 -0.335126)
(1.7227 -9.40752e-20 -0.313322)
(1.60611 0 -0.291702)
(1.49098 0 -0.270332)
(1.37703 0 -0.249166)
(1.26452 1.76904e-19 -0.228254)
(1.15338 0 -0.207596)
(1.04378 3.40078e-19 -0.187208)
(0.935849 -1.66367e-19 -0.167151)
(0.829706 0 -0.147407)
(0.725596 0 -0.128086)
(0.623829 1.5464e-19 -0.109165)
(0.524291 -2.58778e-23 -0.0907398)
(0.428259 1.4627e-19 -0.0729002)
(0.333998 -2.84025e-19 -0.055522)
(0.24563 2.75286e-19 -0.0391207)
(0.157018 2.66545e-19 -0.0228711)
(0.0788751 2.57701e-19 -0.00837859)
(-0.00428603 2.9239e-23 0.00679332)
(-0.0693145 0 0.0188039)
(-0.147464 -2.30957e-19 0.0330512)
(-0.197461 0 0.0421518)
(-0.269618 0 0.055424)
(-0.306499 4.09239e-19 0.0618659)
(-0.36737 0 0.0732446)
(-0.398769 0 0.0787814)
(-0.445601 0 0.0866864)
(-0.456968 -3.4198e-19 0.0905798)
(-0.542616 0 0.102606)
(-0.432792 -3.11777e-19 0.0860478)
(-0.673437 0 0.131997)
(-0.480857 0 0.0863473)
(-0.589225 0 0.119117)
(-0.658275 0 0.12433)
(-0.53548 0 0.103522)
(-0.742474 -4.50701e-19 0.145229)
(-0.591773 -4.32476e-19 0.104728)
(-0.570762 4.0662e-19 0.122712)
(-0.996782 0 0.189282)
(-0.425725 0 0.0692991)
(-0.799872 -1.32792e-18 0.180941)
(-1.16484 0 0.202002)
(-0.217651 6.17413e-19 0.0504448)
(-1.61894 0 0.328042)
(-0.732107 5.43628e-19 0.161989)
(-2.51733 4.65397e-19 0.573036)
(-3.36879 0 0.676258)
(-3.35818 -4.74523e-19 0.575069)
(-0.862466 0 0.0891569)
(32.6574 4.68166e-21 1.0442)
(33.068 1.13787e-20 1.13038)
(33.5136 -6.90716e-21 1.04655)
(33.8783 -7.83651e-22 0.782388)
(34.051 7.48202e-21 0.391318)
(33.9758 0 -0.0647151)
(33.6446 0 -0.536596)
(33.0776 -1.63875e-20 -0.988582)
(32.3103 -3.04292e-20 -1.39703)
(31.3851 -7.09451e-22 -1.74889)
(30.3455 1.38976e-20 -2.03966)
(29.2323 -1.29662e-20 -2.27068)
(28.0804 1.17215e-20 -2.44681)
(26.9182 0 -2.57462)
(25.7672 0 -2.66131)
(24.6429 -9.51033e-21 -2.7139)
(23.5559 3.47872e-20 -2.73877)
(22.5126 3.20041e-20 -2.74151)
(21.5164 0 -2.72683)
(20.5688 0 -2.69864)
(19.6695 0 -2.6601)
(18.8174 -6.72207e-23 -2.61375)
(18.0107 -2.05383e-20 -2.56162)
(17.2473 9.3225e-21 -2.50533)
(16.5247 1.69301e-20 -2.44614)
(15.8407 -3.07172e-20 -2.38507)
(15.1928 1.38486e-20 -2.32289)
(14.5788 1.2468e-20 -2.26022)
(13.9964 1.11852e-20 -2.19754)
(13.4435 0 -2.13522)
(12.9182 -8.90017e-21 -2.07355)
(12.4186 7.86302e-21 -2.01273)
(11.943 -6.91785e-21 -1.95293)
(11.4899 -1.20644e-20 -1.89426)
(11.0577 -2.08715e-20 -1.83682)
(10.6451 0 -1.78065)
(10.2508 0 -1.72578)
(9.87369 -6.24735e-21 -1.67224)
(9.51256 0 -1.62002)
(9.16646 3.96718e-21 -1.56912)
(8.83443 2.96071e-21 -1.51952)
(8.5156 0 -1.47118)
(8.20916 4.72953e-21 -1.4241)
(7.91433 7.99956e-22 -1.37822)
(7.63043 0 -1.33353)
(7.35676 -1.92538e-21 -1.28996)
(7.09273 -3.09534e-21 -1.2475)
(6.83774 0 -1.20609)
(6.59127 1.03166e-20 -1.1657)
(6.35276 -6.0349e-21 -1.12628)
(6.12179 -1.3663e-20 -1.0878)
(5.89784 0 -1.0502)
(5.68055 -2.50374e-23 -1.01346)
(5.46944 3.50407e-20 -0.977518)
(5.26422 0 -0.942359)
(5.06441 0 -0.907915)
(4.8698 -2.01636e-20 -0.87418)
(4.67992 -2.08445e-20 -0.841079)
(4.49462 4.27942e-20 -0.808619)
(4.31341 4.37518e-20 -0.776714)
(4.13625 4.45207e-20 -0.745385)
(3.96261 -4.51306e-20 -0.714538)
(3.79252 -9.11586e-20 -0.684208)
(3.62543 0 -0.654289)
(3.46147 0 -0.624832)
(3.30004 -9.23809e-20 -0.595723)
(3.14136 0 -0.567027)
(2.9848 0 -0.538623)
(2.83066 9.16622e-20 -0.510591)
(2.67831 0 -0.482806)
(2.52811 -9.02483e-20 -0.45536)
(2.37945 -3.25095e-23 -0.428132)
(2.23273 8.83187e-20 -0.401219)
(2.08743 0 -0.37452)
(1.94394 0 -0.348124)
(1.80188 0 -0.321965)
(1.66161 1.65915e-19 -0.29611)
(1.52296 0 -0.270553)
(1.38618 -1.59505e-19 -0.245318)
(1.25138 3.12084e-19 -0.220473)
(1.11874 0 -0.195999)
(0.988498 0 -0.172029)
(0.861072 0 -0.14853)
(0.736276 -2.5588e-23 -0.125633)
(0.615693 -1.37124e-19 -0.103417)
(0.497214 -2.6615e-19 -0.0817825)
(0.385807 -2.5801e-19 -0.0612784)
(0.274138 2.49718e-19 -0.0410193)
(0.175034 0 -0.022796)
(0.0699972 2.33067e-19 -0.00386351)
(-0.0132147 0 0.011374)
(-0.112139 2.1633e-19 0.0291769)
(-0.176908 0 0.0408465)
(-0.268666 0 0.0575261)
(-0.316852 0 0.0658079)
(-0.395397 -3.67003e-19 0.0803687)
(-0.435784 -3.50903e-19 0.0873309)
(-0.497196 0 0.0975392)
(-0.514637 3.20018e-19 0.103238)
(-0.617184 -3.04852e-19 0.116573)
(-0.498595 2.91722e-19 0.100447)
(-0.777425 -2.74194e-19 0.152952)
(-0.551891 0 0.0979821)
(-0.697038 0 0.142651)
(-0.760772 0 0.142951)
(-0.635665 0 0.123505)
(-0.870409 4.21445e-19 0.170709)
(-0.696126 1.77984e-23 0.121679)
(-0.697573 -7.60328e-19 0.152541)
(-1.15213 0 0.217376)
(-0.523578 0 0.0840305)
(-0.96582 6.20589e-19 0.223854)
(-1.34905 0 0.228503)
(-0.325612 -5.76974e-19 0.0768656)
(-1.93439 0 0.396217)
(-0.92013 -1.01596e-18 0.208387)
(-2.98084 0 0.696641)
(-3.74375 0 0.756185)
(-3.73703 4.4328e-19 0.614001)
(-0.745791 0 0.032273)
(32.6811 0 0.691515)
(32.9822 -5.23449e-21 0.733969)
(33.3187 0 0.683639)
(33.6488 -6.58716e-21 0.519774)
(33.9091 -1.34279e-20 0.257214)
(34.0489 0 -0.0723148)
(34.0397 6.69762e-21 -0.437401)
(33.8699 0 -0.811948)
(33.5402 9.01839e-22 -1.17576)
(33.0601 -2.57884e-20 -1.51435)
(32.4456 0 -1.8184)
(31.717 0 -2.08301)
(30.8966 -1.10247e-20 -2.30659)
(30.0068 0 -2.48987)
(29.0685 0 -2.63515)
(28.1009 0 -2.74568)
(27.1201 -1.62501e-20 -2.82527)
(26.1394 -1.49655e-20 -2.87786)
(25.1696 -1.35733e-20 -2.90736)
(24.2185 0 -2.91738)
(23.292 0 -2.91123)
(22.3942 -1.0562e-20 -2.89182)
(21.5276 9.63372e-21 -2.86165)
(20.6935 -8.76807e-21 -2.82289)
(19.8927 -1.59232e-20 -2.77734)
(19.1249 2.87741e-20 -2.72651)
(18.3898 -5.41173e-23 -2.67165)
(17.6864 -1.17261e-20 -2.6138)
(17.0136 -1.05194e-20 -2.55381)
(16.3703 0 -2.49237)
(15.7551 0 -2.43006)
(15.1668 -7.39463e-21 -2.36732)
(14.604 0 -2.30454)
(14.0655 1.13452e-20 -2.242)
(13.5499 9.81224e-21 -2.17994)
(13.056 -8.38939e-21 -2.11856)
(12.5826 0 -2.05799)
(12.1286 5.87424e-21 -1.99835)
(11.6929 4.76064e-21 -1.93972)
(11.2745 3.79587e-24 -1.88216)
(10.8724 -5.57205e-21 -1.82572)
(10.4858 0 -1.7704)
(10.1136 -2.23038e-21 -1.71624)
(9.75517 0 -1.66323)
(9.40967 0 -1.61137)
(9.07636 0 -1.56063)
(8.75456 1.38902e-23 -1.51101)
(8.4436 0 -1.46247)
(8.1429 -4.841e-21 -1.415)
(7.8518 1.13296e-20 -1.36855)
(7.56983 1.28393e-20 -1.32311)
(7.29638 0 -1.27861)
(7.03104 -1.53828e-20 -1.23506)
(6.77322 -3.28768e-20 -1.19237)
(6.5226 0 -1.15056)
(6.2786 0 -1.10953)
(6.04099 1.89407e-20 -1.0693)
(5.80917 1.95417e-20 -1.02979)
(5.583 -2.00878e-20 -0.990997)
(5.36187 -4.10226e-20 -0.952835)
(5.14573 0 -0.915333)
(4.93393 0 -0.878377)
(4.72653 2.8647e-23 -0.842017)
(4.52284 -4.30591e-20 -0.806127)
(4.32302 0 -0.770772)
(4.12634 4.3347e-20 -0.735815)
(3.93305 0 -0.701339)
(3.74239 0 -0.667196)
(3.55472 0 -0.633487)
(3.36926 0 -0.600059)
(3.18644 3.44994e-23 -0.567025)
(3.0055 -3.22205e-23 -0.53424)
(2.82694 -8.27914e-20 -0.50182)
(2.65007 0 -0.469642)
(2.47541 -8.04751e-20 -0.437814)
(2.30243 0 -0.406254)
(2.13158 -1.55578e-19 -0.375047)
(1.96262 1.52575e-19 -0.344174)
(1.79587 -1.49462e-19 -0.313675)
(1.63138 -1.46258e-19 -0.28362)
(1.46943 0 -0.253991)
(1.31022 1.39384e-19 -0.224946)
(1.15431 0 -0.196438)
(1.0014 -1.32185e-19 -0.168639)
(0.853428 -1.28427e-19 -0.141611)
(0.707876 2.4933e-19 -0.115294)
(0.570593 0 -0.0902477)
(0.43303 -4.67736e-19 -0.0655643)
(0.310167 0 -0.0431721)
(0.180462 2.18188e-19 -0.020081)
(0.0763734 0 -0.00118993)
(-0.0460546 2.02482e-19 0.0205518)
(-0.128075 0 0.0351788)
(-0.24213 3.73847e-19 0.0556539)
(-0.303708 -3.58525e-19 0.0660821)
(-0.402678 3.43442e-19 0.0842569)
(-0.453584 3.28341e-19 0.0928387)
(-0.532253 0 0.105744)
(-0.55732 -5.98743e-19 0.113598)
(-0.678016 5.70309e-19 0.128018)
(-0.554455 0 0.113551)
(-0.869213 2.56437e-19 0.17179)
(-0.614347 0 0.107898)
(-0.799511 0 0.165868)
(-0.852818 -4.41308e-19 0.159425)
(-0.733655 0 0.143467)
(-0.990502 0 0.194831)
(-0.797896 3.77958e-19 0.137895)
(-0.824639 7.10692e-19 0.183424)
(-1.29654 3.27023e-19 0.242813)
(-0.62744 0 0.0996763)
(-1.13077 0 0.268522)
(-1.52367 0 0.251811)
(-0.453381 0 0.109126)
(-2.24323 4.8244e-19 0.464722)
(-1.11286 4.74575e-19 0.25799)
(-3.41581 0 0.819065)
(-4.00726 0 0.814037)
(-4.04332 0 0.630631)
(-0.523289 0 -0.0535357)
(32.6793 4.18402e-21 0.403567)
(32.911 0 0.418771)
(33.1665 4.90158e-21 0.377376)
(33.4309 0 0.263362)
(33.6734 6.00454e-21 0.0772848)
(33.8626 0 -0.166153)
(33.9754 -6.29491e-21 -0.447815)
(33.9969 1.15393e-20 -0.749765)
(33.9179 2.35609e-20 -1.05685)
(33.7336 7.294e-22 -1.35707)
(33.4436 0 -1.64142)
(33.0513 0 -1.9037)
(32.5632 0 -2.14003)
(31.9887 0 -2.34836)
(31.3387 0 -2.52792)
(30.6252 0 -2.67898)
(29.8607 1.46399e-20 -2.80257)
(29.0575 -1.35615e-20 -2.90027)
(28.2272 1.27535e-20 -2.97407)
(27.3803 0 -3.02618)
(26.526 0 -3.05895)
(25.6721 9.72393e-21 -3.07469)
(24.8251 8.89274e-21 -3.07566)
(23.9901 8.11209e-21 -3.06396)
(23.1713 0 -3.04154)
(22.3716 -1.3485e-20 -3.01014)
(21.5932 -2.42993e-20 -2.97128)
(20.8375 1.09192e-20 -2.92633)
(20.1055 0 -2.87646)
(19.3977 0 -2.82266)
(18.7141 0 -2.76581)
(18.0546 6.91277e-21 -2.70663)
(17.4187 0 -2.64574)
(16.806 0 -2.58366)
(16.2157 9.19238e-21 -2.52083)
(15.6473 7.88105e-21 -2.4576)
(15.0998 0 -2.39428)
(14.5724 5.5143e-21 -2.33112)
(14.0643 -8.9421e-21 -2.26832)
(13.5748 -3.50714e-21 -2.20604)
(13.1029 2.61911e-21 -2.14441)
(12.6479 0 -2.08354)
(12.2089 0 -2.02352)
(11.7852 0 -1.96439)
(11.376 -5.13551e-22 -1.90621)
(10.9806 0 -1.84899)
(10.5983 2.719e-21 -1.79278)
(10.2284 3.65796e-21 -1.73756)
(9.87034 0 -1.68335)
(9.52339 -5.31255e-21 -1.63012)
(9.18705 0 -1.57788)
(8.86064 0 -1.52659)
(8.54374 -1.43958e-20 -1.47625)
(8.23568 2.1886e-23 -1.4268)
(7.93611 1.62846e-20 -1.37826)
(7.64438 0 -1.33054)
(7.36022 0 -1.28367)
(7.08295 -1.83398e-20 -1.23756)
(6.81241 0 -1.19223)
(6.5479 3.84944e-20 -1.14757)
(6.28935 0 -1.10363)
(6.03602 0 -1.06029)
(5.78796 8.01918e-20 -1.0176)
(5.54436 8.07616e-20 -0.975429)
(5.30542 4.05419e-20 -0.933852)
(5.07025 0 -0.892708)
(4.83918 0 -0.852105)
(4.61127 4.04725e-20 -0.811863)
(4.38695 8.0553e-20 -0.772111)
(4.16528 0 -0.732663)
(3.94678 7.93595e-20 -0.69366)
(3.73052 -7.85447e-20 -0.654924)
(3.51709 7.76114e-20 -0.616602)
(3.30565 -7.65418e-20 -0.578537)
(3.0968 7.54269e-20 -0.540869)
(2.88989 0 -0.503488)