/*--------------------------------*- C++ -*----------------------------------*\
| =========                 |                                                 |
| \\      /  F ield         | OpenFOAM: The Open Source CFD Toolbox           |
|  \\    /   O peration     | Version:  2412                                  |
|   \\  /    A nd           | Website:  www.openfoam.com                      |
|    \\/     M anipulation  |                                                 |
\*---------------------------------------------------------------------------*/
FoamFile
{
    version     2.0;
    format      ascii;
    arch        "LSB;label=32;scalar=64";
    class       volVectorField;
    location    "0.25";
    object      ddtCorrDdt0(U);
}
// * * * * * * * * * * * * * * * * * * * * * * * * * * * * * * * * * * * * * //

dimensions      [0 1 -2 0 0 0 0];

internalField   nonuniform List<vector> 
12600
(
(1.14982 -7.17795e-20 -2.6962)
(-0.372683 -1.52879e-19 -0.649421)
(1.40104 -2.95219e-19 -0.0399533)
(1.84952 0 -0.0882819)
(1.73351 -3.80863e-19 -0.178263)
(1.61455 -3.79675e-19 -0.211132)
(1.55677 0 -0.204491)
(1.50991 0 -0.202281)
(1.44582 1.16368e-18 -0.202269)
(1.37504 0 -0.205198)
(1.31579 -4.61792e-19 -0.207578)
(1.27302 -4.34733e-19 -0.207775)
(1.23819 4.1684e-19 -0.206326)
(1.20224 0 -0.203593)
(1.16185 3.90393e-19 -0.1996)
(1.11679 0 -0.194709)
(1.06632 -1.43349e-18 -0.189445)
(1.00925 0 -0.184043)
(0.94611 6.07916e-19 -0.178509)
(0.880228 5.40612e-19 -0.172914)
(0.816203 -4.74174e-19 -0.167398)
(0.757458 1.28489e-21 -0.161934)
(0.704914 0 -0.156248)
(0.657381 4.64535e-19 -0.150002)
(0.612881 0 -0.143034)
(0.56993 0 -0.13544)
(0.528214 -3.76903e-19 -0.12748)
(0.488551 0 -0.11939)
(0.452272 1.41263e-21 -0.111237)
(0.420447 1.01107e-18 -0.102888)
(0.393362 1.07834e-18 -0.094106)
(0.370393 1.10179e-18 -0.0846951)
(0.350147 -1.11414e-18 -0.0746059)
(0.330732 -2.28552e-18 -0.0639604)
(0.310079 -2.40146e-18 -0.0530096)
(0.286337 2.5685e-18 -0.0420635)
(0.258156 0 -0.0314063)
(0.224956 -2.97373e-18 -0.0212676)
(0.186932 0 -0.0117933)
(0.144945 3.20677e-18 -0.0030929)
(0.100058 0 0.00476991)
(0.0534108 6.72884e-22 0.0116864)
(0.00570862 0 0.0175917)
(-0.0424102 9.83842e-22 0.0223718)
(-0.0906522 6.27153e-18 0.02601)
(-0.137819 -6.44908e-18 0.0284205)
(-0.182213 6.66458e-18 0.0297337)
(-0.220369 0 0.0300885)
(-0.24857 0 0.0299836)
(-0.262929 6.56647e-18 0.0298489)
(-0.262111 1.21567e-17 0.0301409)
(-0.247602 1.07421e-17 0.030802)
(-0.222959 -1.3794e-20 0.0314801)
(-0.193209 6.89123e-18 0.0316805)
(-0.159544 0 0.0310627)
(-0.121602 -2.57054e-18 0.0300612)
(-0.0742996 -7.72119e-19 0.0289848)
(-0.0160309 3.68237e-19 0.0283195)
(0.0504767 0 0.0267405)
(0.11879 0 0.0225662)
(0.177348 0 0.0137289)
(0.229127 2.94932e-18 -0.00021129)
(0.274638 0 -0.015927)
(0.331788 0 -0.030868)
(0.392256 -1.39049e-17 -0.0390315)
(0.443524 0 -0.0422526)
(0.436928 0 -0.0388279)
(0.3308 0 -0.0339587)
(0.105335 3.12986e-17 -0.0277473)
(-0.213421 -3.30159e-17 -0.019317)
(-0.526394 -3.13055e-17 0.0434234)
(-0.750958 2.39252e-21 0.0933651)
(-0.833549 2.65995e-17 0.149582)
(-0.71599 0 0.183441)
(-0.472562 -2.23083e-17 0.170646)
(-0.00852553 0 0.0729537)
(0.477179 0 -0.0179669)
(0.746529 0 -0.118962)
(0.46976 -1.27066e-19 -0.105113)
(-0.372276 5.44228e-17 0.0577487)
(-1.27827 5.30209e-17 0.201248)
(-1.55955 -4.70626e-17 0.297299)
(-1.34591 -3.14543e-17 0.197735)
(-0.583639 0 0.101713)
(-0.0898686 0 0.0644088)
(-0.0333765 -1.47712e-17 0.0797992)
(-0.167753 9.67138e-17 0.0948414)
(-0.518825 -1.58662e-16 0.135822)
(-1.55093 -1.01774e-16 0.283958)
(-2.38289 0 0.418443)
(-2.85256 2.00035e-16 0.499282)
(-2.86588 -8.49439e-17 0.502138)
(-2.99142 6.13179e-17 0.525057)
(-2.93589 -4.06424e-17 0.502609)
(-3.10045 0 0.515)
(-3.27279 0 0.532838)
(-3.70978 0 0.646435)
(-3.93646 0 0.734592)
(-3.87586 0 0.78205)
(-2.74918 0 0.6144)
(-1.16913 -5.33793e-17 0.343174)
(0.874056 4.87737e-17 0.0278574)
(1.69048 1.148e-16 -0.150821)
(1.94415 0 -0.212874)
(0.291972 0 0.0448449)
(-1.86005 0 0.329548)
(-5.07747 2.30046e-16 0.895846)
(-7.70773 2.962e-16 1.30951)
(-9.6124 -9.52954e-18 1.68915)
(-10.2502 0 1.82633)
(-10.5381 -3.67034e-16 1.91019)
(-9.50156 0 1.81021)
(-9.13505 -2.75303e-16 1.74361)
(-7.5891 2.97998e-16 1.49668)
(-7.20806 -1.03201e-16 1.37438)
(-6.04114 -4.1554e-16 1.13326)
(-5.64867 3.21692e-17 1.09964)
(-5.2563 -8.57649e-21 0.981846)
(-4.82357 1.29302e-16 0.95747)
(-4.83307 0 0.960059)
(-0.99838 7.24857e-20 -4.83467)
(-0.281402 0 -1.87699)
(1.88766 2.9879e-19 -0.517383)
(3.0906 0 -0.410648)
(3.4674 3.85933e-19 -0.53504)
(3.57183 7.69649e-19 -0.592889)
(3.58038 3.72412e-19 -0.580668)
(3.51934 0 -0.566593)
(3.42167 2.36913e-21 -0.566917)
(3.32343 5.20169e-19 -0.580201)
(3.24831 -4.73413e-19 -0.591401)
(3.1908 -4.46808e-19 -0.592235)
(3.13382 4.29518e-19 -0.585221)
(3.06817 -4.1489e-19 -0.575189)
(2.99347 -7.97125e-19 -0.564048)
(2.91028 0 -0.551628)
(2.81652 -7.14962e-21 -0.537718)
(2.71032 -6.84629e-19 -0.522693)
(2.59389 -6.16763e-19 -0.507283)
(2.47373 0 -0.492158)
(2.35691 0 -0.477455)
(2.24683 -4.13829e-19 -0.462514)
(2.14209 0 -0.446217)
(2.03867 -2.35747e-19 -0.427713)
(1.93314 2.24651e-19 -0.406942)
(1.82459 0 -0.384548)
(1.7145 3.82375e-19 -0.361389)
(1.60532 0 -0.338029)
(1.49904 -8.84501e-19 -0.31452)
(1.39635 -2.04511e-18 -0.290503)
(1.29674 -2.18078e-18 -0.265512)
(1.19898 -1.11521e-18 -0.239275)
(1.10156 1.1274e-18 -0.211851)
(1.00294 4.62693e-18 -0.183603)
(0.901662 4.86313e-18 -0.155069)
(0.796562 0 -0.126832)
(0.68695 0 -0.0993693)
(0.572895 -7.91761e-21 -0.0730465)
(0.45522 0 -0.0480753)
(0.335526 -3.23737e-18 -0.0246378)
(0.215541 0 -0.00281077)
(0.0971013 -6.40624e-18 0.0172254)
(-0.0188342 0 0.0354662)
(-0.131345 -6.24935e-18 0.051766)
(-0.240332 0 0.0662319)
(-0.343945 6.49382e-18 0.0785691)
(-0.43991 0 0.0888618)
(-0.522637 0 0.096798)
(-0.586941 -6.8537e-18 0.102835)
(-0.626417 0 0.107036)
(-0.639075 0 0.109958)
(-0.625228 0 0.11124)
(-0.589135 -8.97307e-18 0.110364)
(-0.535925 -1.37979e-17 0.106646)
(-0.467337 0 0.0994234)
(-0.383491 0 0.089619)
(-0.278382 7.41185e-19 0.0772488)
(-0.151321 -3.6822e-19 0.0636822)
(-0.003714 0 0.0466507)
(0.156111 0 0.0245556)
(0.314206 0 -0.00514412)
(0.471664 0 -0.0425786)
(0.616316 4.58496e-18 -0.0806888)
(0.766624 -5.68108e-18 -0.11614)
(0.882379 1.38509e-17 -0.134589)
(0.950772 0 -0.139129)
(0.870301 0 -0.118054)
(0.596807 0 -0.0796137)
(0.0805944 7.68644e-20 -0.0197499)
(-0.626872 3.27002e-17 0.0582)
(-1.38032 3.09778e-17 0.199652)
(-2.03712 -5.58836e-17 0.331684)
(-2.43792 -1.12573e-20 0.454286)
(-2.33991 2.46015e-17 0.501135)
(-1.75512 2.19909e-17 0.422041)
(-0.364182 0 0.126848)
(1.09043 0 -0.161375)
(1.87255 0 -0.348548)
(0.933443 4.60682e-17 -0.178303)
(-1.53825 0 0.300044)
(-3.94105 0 0.660525)
(-4.55284 4.60609e-17 0.903138)
(-3.87158 3.0752e-17 0.610993)
(-1.85414 0 0.317211)
(-0.844185 0 0.205938)
(-0.83655 0 0.248223)
(-1.266 -9.47576e-17 0.317214)
(-2.27654 -4.76673e-19 0.494966)
(-5.07974 -9.97743e-17 1.01498)
(-7.23456 1.06864e-16 1.37602)
(-8.51918 -1.93846e-16 1.59097)
(-8.63024 -8.20974e-17 1.60312)
(-9.03688 -1.18429e-16 1.67681)
(-8.84705 0 1.62553)
(-9.33079 0 1.70008)
(-9.80067 0 1.78301)
(-11.2707 0 2.10378)
(-11.9802 1.84627e-16 2.28847)
(-11.8955 0 2.31196)
(-8.65163 0 1.71096)
(-4.30487 -5.10306e-17 0.887015)
(1.02307 -2.34258e-17 -0.0365546)
(2.83179 -2.19862e-16 -0.385261)
(2.99016 1.43217e-16 -0.38714)
(-2.1374 0 0.48968)
(-8.10157 0 1.57924)
(-17.0846 0 3.25372)
(-23.7193 -1.40982e-16 4.41955)
(-28.8139 9.06925e-18 5.39705)
(-30.1999 0 5.66598)
(-30.9706 6.97812e-16 5.82949)
(-28.3406 2.71201e-16 5.42338)
(-27.2068 5.22361e-16 5.20443)
(-22.9995 0 4.44205)
(-21.6344 0 4.12936)
(-18.2165 -3.93473e-16 3.45074)
(-17.5821 0 3.37821)
(-16.1109 -1.20377e-16 3.05747)
(-15.3448 -1.22159e-16 2.97337)
(-15.3761 0 2.98429)
(-1.6402 0 -4.54743)
(-0.691053 0 -2.65348)
(1.00145 3.05505e-19 -1.49361)
(2.56505 0 -1.09654)
(3.63577 0 -0.964291)
(4.29905 -3.60188e-19 -0.890806)
(4.66158 -3.52676e-19 -0.829812)
(4.80759 0 -0.795432)
(4.82605 6.88647e-21 -0.808607)
(4.80134 -4.9279e-19 -0.851518)
(4.78246 9.07464e-19 -0.886445)
(4.76905 4.2335e-19 -0.894362)
(4.74066 1.05653e-20 -0.883476)
(4.68748 3.93141e-19 -0.86878)
(4.61284 3.79963e-19 -0.855683)
(4.52081 -3.73993e-19 -0.841408)
(4.41043 6.96672e-19 -0.82318)
(4.28003 6.48784e-19 -0.801831)
(4.13305 0 -0.780102)
(3.97838 0 -0.759761)
(3.82505 -4.74159e-19 -0.740231)
(3.67654 -4.08595e-19 -0.719155)
(3.52973 0 -0.694107)
(3.37854 0 -0.664151)
(3.21882 -2.12871e-19 -0.63018)
(3.05053 0 -0.594029)
(2.87679 -7.12088e-19 -0.557241)
(2.70136 6.17323e-19 -0.520361)
(2.52655 0 -0.483046)
(2.35267 9.67481e-19 -0.444617)
(2.17865 1.03168e-18 -0.404613)
(2.00303 0 -0.363052)
(1.82453 -1.0642e-18 -0.320375)
(1.64222 -2.19267e-18 -0.277239)
(1.45543 1.76214e-21 -0.234304)
(1.26379 0 -0.19214)
(1.06742 0 -0.151131)
(0.867186 2.85251e-18 -0.111551)
(0.664701 0 -0.0735557)
(0.462452 0 -0.0373494)
(0.262967 0 -0.00298987)
(0.0688917 0 0.0293548)
(-0.118391 0 0.0598613)
(-0.297425 0 0.0884627)
(-0.467911 0 0.115424)
(-0.626943 -6.15077e-18 0.140136)
(-0.771343 6.35917e-18 0.162339)
(-0.89332 0 0.18075)
(-0.986455 6.48424e-18 0.1951)
(-1.04217 0 0.204328)
(-1.05833 0 0.208667)
(-1.0342 -1.01793e-17 0.207427)
(-0.975127 0 0.200516)
(-0.88615 6.51406e-18 0.187611)
(-0.770289 -4.43459e-18 0.168179)
(-0.628281 0 0.143164)
(-0.454714 -7.00583e-19 0.111784)
(-0.250346 0 0.076056)
(-0.0167298 0 0.0341349)
(0.235102 0 -0.0127173)
(0.488129 -1.06737e-18 -0.0649069)
(0.739469 -2.82237e-18 -0.120593)
(0.964422 2.70109e-21 -0.171519)
(1.17885 1.07261e-17 -0.215725)
(1.31311 -1.59228e-21 -0.23377)
(1.35503 0 -0.228189)
(1.15643 0 -0.173307)
(0.68271 2.57554e-17 -0.077663)
(-0.14172 3.69812e-20 0.0694975)
(-1.22458 0 0.252357)
(-2.39101 0 0.448266)
(-3.41381 2.63494e-17 0.639623)
(-4.04891 -2.02019e-20 0.772319)
(-3.89068 -4.62255e-20 0.760804)
(-2.91049 0 0.555352)
(-0.650686 0 0.0632955)
(1.57518 1.35509e-18 -0.377352)
(2.62769 2.37794e-17 -0.511729)
(0.845188 0 -0.0514726)
(-3.1662 0 0.74266)
(-6.80379 0 1.25983)
(-7.55183 0 1.47132)
(-6.3122 0 1.04252)
(-3.20506 0 0.523341)
(-1.91852 0 0.385859)
(-2.0349 0 0.471367)
(-2.87693 8.96756e-17 0.634515)
(-4.66612 7.30866e-17 0.974274)
(-9.15837 9.3775e-17 1.95113)
(-12.4533 -1.00417e-16 2.47961)
(-14.4946 1.82117e-16 2.78426)
(-14.7026 7.71135e-17 2.79888)
(-15.4158 5.55293e-17 2.92389)
(-15.1064 0 2.85725)
(-15.9805 0 3.03235)
(-16.7605 0 3.20834)
(-19.2029 0 3.71079)
(-20.1274 -1.73211e-16 3.88628)
(-19.7259 0 3.74165)
(-14.2345 0 2.60779)
(-7.4731 4.78477e-17 1.27253)
(0.480746 0 -0.132485)
(2.44751 1.03098e-16 -0.37905)
(1.79598 -1.34211e-16 -0.117638)
(-7.23933 0 1.74284)
(-17.0921 0 3.63467)
(-31.4537 0 6.3485)
(-41.4107 -1.3185e-16 8.08322)
(-49.1304 0 9.44376)
(-50.707 -1.07237e-17 9.65353)
(-51.7524 2.92654e-19 9.79318)
(-47.3268 -2.53815e-16 8.98419)
(-45.4144 -4.88977e-16 8.59012)
(-38.5726 0 7.31348)
(-36.4204 9.17132e-17 6.87223)
(-30.913 3.68045e-16 5.82392)
(-30.1986 2.82548e-17 5.75753)
(-27.7119 0 5.26318)
(-26.6277 1.14223e-16 5.12497)
(-26.6517 0 5.14436)
(-1.55587 0 -4.26827)
(-1.06596 0 -3.38449)
(-0.0192144 -2.888e-19 -2.5455)
(1.35038 0 -1.97687)
(2.67764 3.44839e-19 -1.57182)
(3.7933 -7.0056e-19 -1.26933)
(4.62552 0 -1.05781)
(5.16812 6.15196e-19 -0.952935)
(5.48331 -5.3712e-19 -0.962324)
(5.67254 -4.87494e-19 -1.03926)
(5.81565 -4.33972e-19 -1.10852)
(5.93246 4.2494e-19 -1.13109)
(6.00577 -3.9489e-19 -1.12088)
(6.02526 7.87379e-19 -1.10626)
(5.99941 0 -1.09691)
(5.93972 7.17897e-19 -1.08613)
(5.84941 0 -1.06773)
(5.72763 0 -1.04342)
(5.57809 0 -1.01878)
(5.41125 -5.2458e-19 -0.99694)
(5.23864 -1.55739e-20 -0.976119)
(5.06534 -1.45474e-20 -0.951505)
(4.88787 -3.27509e-19 -0.919026)
(4.6987 0 -0.877986)
(4.4928 0 -0.830922)
(4.27074 0 -0.78136)
(4.03719 6.40631e-19 -0.731561)
(3.79724 -2.04622e-20 -0.68175)
(3.55376 0 -0.630845)
(3.30689 0 -0.577684)
(3.05529 0 -0.521837)
(2.79751 0 -0.463722)
(2.53274 2.00539e-18 -0.404257)
(2.26085 0 -0.34445)
(1.98205 -2.18179e-18 -0.28513)
(1.69692 0 -0.226915)
(1.40648 0 -0.170193)
(1.11252 -2.7009e-18 -0.115271)
(0.817571 0 -0.0623813)
(0.525148 0 -0.0118793)
(0.238719 2.90302e-18 0.0360846)
(-0.0380794 -5.72409e-18 0.0812523)
(-0.303184 0 0.123858)
(-0.554252 -5.58476e-18 0.163747)
(-0.790342 0 0.201129)
(-1.00703 1.16246e-17 0.234933)
(-1.19986 2.86748e-21 0.264539)
(-1.35862 0 0.287929)
(-1.47565 0 0.30457)
(-1.54024 -5.89713e-18 0.312851)
(-1.55046 -1.08999e-17 0.313178)
(-1.50462 1.92295e-17 0.30474)
(-1.40965 0 0.287992)
(-1.27053 6.16115e-18 0.262734)
(-1.0924 4.18608e-18 0.228804)
(-0.876769 2.27763e-18 0.187191)
(-0.620252 6.80784e-19 0.136919)
(-0.325762 0 0.0805632)
(0.00281711 0 0.0163506)
(0.350225 -5.21964e-19 -0.0522502)
(0.694536 2.0355e-18 -0.124641)
(1.02713 2.66198e-18 -0.196172)
(1.31128 1.56346e-22 -0.256863)
(1.55896 -5.05551e-18 -0.303472)
(1.67463 -6.16765e-18 -0.311169)
(1.64809 0 -0.282927)
(1.29075 0 -0.182551)
(0.587229 -2.42713e-17 -0.0252822)
(-0.560108 -5.53956e-17 0.203739)
(-2.00248 0 0.471818)
(-3.53551 -2.753e-17 0.743184)
(-4.8518 -2.47853e-17 0.981098)
(-5.63655 -2.32961e-17 1.10224)
(-5.34699 -4.35251e-17 1.00321)
(-3.94744 0 0.640976)
(-0.916518 0 -0.0419941)
(1.8706 -1.27517e-18 -0.545592)
(2.95161 -4.48117e-17 -0.56723)
(0.194255 -4.09804e-17 0.218083)
(-5.19883 0 1.33431)
(-9.80302 0 1.98166)
(-10.5277 0 1.96774)
(-8.69839 0 1.4456)
(-4.69777 0 0.70695)
(-3.3437 0 0.626654)
(-3.64459 1.33596e-17 0.790971)
(-5.02334 1.8844e-19 1.08446)
(-7.65282 -6.92621e-17 1.7071)
(-13.7574 0 3.00231)
(-18.0124 -9.44489e-17 3.66082)
(-20.7566 -8.54799e-17 4.03219)
(-21.0474 0 4.03404)
(-22.081 5.1966e-17 4.20726)
(-21.6662 3.35868e-17 4.12502)
(-23.0007 0 4.41068)
(-24.0795 0 4.67826)
(-27.3934 0 5.34695)
(-28.2481 -1.62416e-16 5.45551)
(-27.2964 0 5.08955)
(-19.5438 0 3.41364)
(-10.8312 4.50157e-17 1.66247)
(-0.954493 2.06713e-17 -0.0404497)
(0.356674 0 -0.0100296)
(-1.72107 0 0.671687)
(-14.9995 0 3.5444)
(-28.6771 0 6.18891)
(-47.9279 0 9.85042)
(-60.5011 -5.30531e-20 11.9836)
(-70.3169 0 13.6305)
(-71.5953 1.00349e-17 13.687)
(-72.7615 -3.06009e-16 13.7734)
(-66.3951 0 12.5528)
(-63.7348 -1.43139e-19 11.9806)
(-54.3263 0 10.2134)
(-51.5789 1.50101e-19 9.66779)
(-44.1518 0 8.28464)
(-43.476 -2.64173e-17 8.25248)
(-40.0457 0 7.58279)
(-38.6479 1.06923e-16 7.41027)
(-38.605 0 7.42956)
(-1.29681 0 -4.37666)
(-1.09771 0 -3.91746)
(-0.544667 0 -3.30102)
(0.361939 0 -2.72663)
(1.46881 -3.25498e-19 -2.22144)
(2.6221 -1.50474e-21 -1.78157)
(3.68633 0 -1.42467)
(4.56609 -5.80657e-19 -1.19894)
(5.23155 0 -1.14229)
(5.72775 9.34525e-19 -1.21099)
(6.12758 0 -1.29687)
(6.46474 -4.01173e-19 -1.32741)
(6.7263 0 -1.31244)
(6.89802 -7.4341e-19 -1.29387)
(6.99052 3.70841e-19 -1.28798)
(7.02405 -6.99162e-19 -1.28328)
(7.00895 6.72768e-19 -1.26782)
(6.94607 6.25475e-19 -1.24305)
(6.8381 0 -1.21767)
(6.69564 4.95349e-19 -1.19684)
(6.53318 4.38206e-19 -1.17769)
(6.35978 7.7455e-19 -1.15235)
(6.17394 3.09257e-19 -1.11439)
(5.96738 0 -1.06325)
(5.73343 0 -1.00357)
(5.47236 0 -0.941122)
(5.19017 -2.9253e-19 -0.879081)
(4.89376 -5.3192e-19 -0.817149)
(4.58717 0 -0.753205)
(4.27084 0 -0.685451)
(3.94333 8.7894e-19 -0.613538)
(3.6033 0 -0.538432)
(3.25053 -1.16271e-20 -0.461651)
(2.88576 -1.93196e-18 -0.384609)
(2.51032 2.0459e-18 -0.30831)
(2.12591 0 -0.233422)
(1.73463 0 -0.160346)
(1.33937 2.54917e-18 -0.0894611)
(0.94379 0 -0.0211196)
(0.552587 0 0.0441207)
(0.170387 -2.73947e-18 0.105981)
(-0.197902 5.40128e-18 0.164061)
(-0.54918 0 0.2186)
(-0.879764 5.26913e-18 0.269232)
(-1.1876 0 0.315971)
(-1.46627 -5.48419e-18 0.357107)
(-1.70973 -5.66944e-18 0.391585)
(-1.9051 0 0.416645)
(-2.04353 -5.78264e-18 0.431674)
(-2.11214 5.56133e-18 0.434693)
(-2.10944 2.0563e-17 0.426557)
(-2.03274 -9.06836e-18 0.406425)
(-1.891 7.56169e-18 0.375441)
(-1.68913 1.53878e-20 0.333513)
(-1.43522 0 0.281021)
(-1.13179 -2.14676e-18 0.219162)
(-0.779072 -6.416e-19 0.147094)
(-0.382892 -2.68721e-19 0.068279)
(0.04832 5.64038e-19 -0.0188385)
(0.493822 4.91765e-19 -0.108226)
(0.924921 -9.69037e-19 -0.198408)
(1.32593 2.52791e-18 -0.28123)
(1.6482 -3.84849e-18 -0.344988)
(1.89913 0 -0.384281)
(1.96084 0 -0.369247)
(1.82752 -7.11357e-18 -0.304124)
(1.27756 0 -0.144045)
(0.324005 0 0.0848425)
(-1.1487 2.60769e-17 0.399459)
(-2.92313 0 0.745856)
(-4.77671 2.59016e-17 1.0767)
(-6.31401 4.66026e-17 1.33857)
(-7.17477 0 1.42063)
(-6.70221 2.04398e-17 1.20941)
(-4.89302 0 0.675569)
(-1.2209 0 -0.177795)
(1.90493 8.88137e-19 -0.680019)
(2.80947 2.10898e-17 -0.50033)
(-0.983213 4.36073e-20 0.666526)
(-7.56463 0 2.05309)
(-12.8935 0 2.72339)
(-13.4413 0 2.45502)
(-11.0644 -2.48989e-17 1.78476)
(-6.37436 1.50831e-17 0.897366)
(-5.1376 0 0.943915)
(-5.67627 -2.51712e-17 1.21442)
(-7.7063 -3.98065e-17 1.67388)
(-11.2512 1.30227e-16 2.42476)
(-18.8096 8.36388e-17 4.20739)
(-23.8531 1.77296e-16 4.92779)
(-27.2495 0 5.33375)
(-27.5933 0 5.30798)
(-28.9509 -4.87266e-17 5.52774)
(-28.4416 -3.14881e-17 5.43548)
(-30.2967 -3.19824e-17 5.84965)
(-31.6394 0 6.20703)
(-35.7067 0 7.00996)
(-36.2328 1.52174e-16 6.97533)
(-34.5972 1.34064e-16 6.32498)
(-24.6943 0 4.10985)
(-14.5747 -4.21583e-17 2.06448)
(-3.4845 -1.93564e-17 0.254075)
(-3.54579 0 0.757009)
(-7.52253 0 2.12447)
(-25.2256 0 5.84779)
(-42.4847 0 9.33132)
(-66.0905 0 13.7856)
(-80.6032 1.15522e-16 16.1329)
(-92.0796 0 17.9345)
(-92.6813 0 17.729)
(-93.8887 0 17.7236)
(-85.52 2.22834e-16 16.0691)
(-82.1787 2.1403e-16 15.3242)
(-70.3107 0 13.0945)
(-67.1211 -8.03241e-17 12.4858)
(-57.9424 0 10.8152)
(-57.3712 -2.48549e-17 10.8444)
(-53.0719 0 10.0123)
(-51.3704 -9.99236e-17 9.81875)
(-51.1564 0 9.82332)
(-1.01309 2.04733e-19 -4.56515)
(-0.86981 2.50913e-19 -4.19481)
(-0.570817 -2.85016e-19 -3.71159)
(-0.0755847 -3.06521e-19 -3.22008)
(0.639951 0 -2.7484)
(1.52405 3.14853e-19 -2.30408)
(2.49131 0 -1.89627)
(3.44338 -5.49104e-19 -1.57688)
(4.2969 -5.01625e-19 -1.42473)
(5.02694 -9.07978e-19 -1.43758)
(5.66507 4.30025e-19 -1.50533)
(6.23857 -4.08058e-19 -1.52377)
(6.73182 0 -1.48769)
(7.11769 0 -1.44998)
(7.3969 -3.49622e-19 -1.43767)
(7.59128 -1.16073e-20 -1.43556)
(7.71702 2.07197e-20 -1.42287)
(7.77687 1.93469e-20 -1.39774)
(7.77072 0 -1.37133)
(7.70626 0 -1.35182)
(7.59945 0 -1.33617)
(7.46509 -7.65775e-19 -1.31316)
(7.30684 -3.24912e-19 -1.2728)
(7.11723 0 -1.21371)
(6.88712 0 -1.1427)
(6.61476 -3.42025e-20 -1.06844)
(6.3067 0 -0.995488)
(5.97221 0 -0.922975)
(5.6175 0 -0.847411)
(5.24403 0 -0.766097)
(4.85048 -2.67571e-20 -0.678736)
(4.43557 0 -0.586978)
(3.99953 -1.62338e-20 -0.493097)
(3.54413 1.82116e-18 -0.398999)
(3.07195 -1.77016e-20 -0.305884)
(2.58606 0 -0.214463)
(2.0899 0 -0.125146)
(1.5877 0 -0.0383984)
(1.08442 0 0.0452979)
(0.586195 0 0.125159)
(0.0990431 0 0.200766)
(-0.370485 0 0.271541)
(-0.817816 -4.99684e-18 0.337684)
(-1.23738 -4.96504e-18 0.398515)
(-1.62553 0 0.453744)
(-1.97338 -5.17606e-18 0.500867)
(-2.27301 0 0.538339)
(-2.50854 0 0.562604)
(-2.66987 1.08969e-17 0.573087)
(-2.74173 0 0.567522)
(-2.72315 -9.68559e-18 0.547395)
(-2.61021 0 0.511869)
(-2.41424 -1.42575e-17 0.462892)
(-2.13991 2.11754e-20 0.40048)
(-1.79911 0 0.325695)
(-1.39559 0 0.240124)
(-0.934822 0 0.143361)
(-0.426317 4.74393e-19 0.0401547)
(0.114698 -1.03213e-18 -0.070542)
(0.660808 -3.80408e-19 -0.179676)
(1.17456 9.65686e-19 -0.284801)
(1.63216 -4.76835e-18 -0.373786)
(1.97282 -3.61473e-18 -0.433277)
(2.19937 0 -0.455403)
(2.17491 0 -0.405896)
(1.90145 1.0543e-20 -0.291267)
(1.13172 0 -0.0599899)
(-0.0840038 0 0.247515)
(-1.87568 2.45259e-17 0.648196)
(-3.94784 0 1.06395)
(-6.07171 0 1.43897)
(-7.75962 -4.37274e-17 1.70158)
(-8.6354 2.04558e-17 1.71848)
(-7.95014 0 1.37438)
(-5.77532 0 0.663785)
(-1.6175 0 -0.328746)
(1.62762 -8.34094e-19 -0.759805)
(2.18825 0 -0.305472)
(-2.63961 7.21808e-17 1.27008)
(-10.1838 -4.16752e-17 2.87437)
(-16.0126 0 3.47252)
(-16.2688 0 2.95413)
(-13.4381 2.33648e-17 2.07028)
(-8.26379 6.1934e-20 1.10911)
(-7.30367 5.14867e-18 1.34121)
(-8.12937 1.18472e-17 1.74207)
(-10.9252 -3.77139e-17 2.39962)
(-15.2984 -6.1169e-17 3.66468)
(-24.2264 -7.84193e-17 5.5283)
(-29.9031 9.03601e-20 6.26528)
(-33.8964 0 6.67585)
(-34.2463 6.34384e-17 6.6063)
(-35.9208 0 6.86724)
(-35.3197 0 6.76916)
(-37.7414 2.99615e-17 7.3272)
(-39.2922 0 7.76851)
(-43.9942 0 8.67159)
(-43.9812 0 8.42774)
(-41.6335 -1.25526e-16 7.45425)
(-29.7993 0 4.7291)
(-18.86 -3.97908e-17 2.51637)
(-7.22956 0 0.787231)
(-9.25678 0 1.90334)
(-15.4885 0 3.9726)
(-37.5322 0 8.76639)
(-58.0709 0 12.9226)
(-85.4704 1.69209e-16 18.0469)
(-101.322 1.08207e-16 20.4458)
(-114.126 -6.52819e-18 22.2992)
(-113.789 0 21.7583)
(-115.028 0 21.6392)
(-104.68 -4.17034e-16 19.5486)
(-100.752 0 18.6409)
(-86.565 2.16756e-16 15.9811)
(-83.0294 0 15.3346)
(-72.2663 3.01332e-16 13.4168)
(-71.8099 2.32265e-17 13.5205)
(-66.7207 0 12.5354)
(-64.7431 -9.34586e-17 12.3357)
(-64.1961 0 12.301)
(-0.727519 -1.92802e-19 -4.65981)
(-0.554121 -5.02874e-19 -4.30242)
(-0.349993 2.6847e-19 -3.90769)
(-0.0907972 -5.71927e-21 -3.50715)
(0.311544 -2.96719e-19 -3.11367)
(0.87397 0 -2.73394)
(1.57813 0 -2.35872)
(2.37401 5.17057e-19 -2.01532)
(3.18774 9.51197e-19 -1.79375)
(3.96251 -1.1925e-20 -1.7391)
(4.69262 -4.04888e-19 -1.76752)
(5.39494 3.84203e-19 -1.75892)
(6.05575 -3.82078e-19 -1.68764)
(6.63635 0 -1.61235)
(7.11691 0 -1.57568)
(7.50664 3.26346e-19 -1.56412)
(7.81927 -1.25399e-18 -1.54749)
(8.05658 -1.1665e-18 -1.5172)
(8.21317 0 -1.48482)
(8.28883 0 -1.46227)
(8.29557 0 -1.44826)
(8.25208 -2.07302e-20 -1.42888)
(8.16963 6.31973e-19 -1.38915)
(8.04437 -2.461e-19 -1.32486)
(7.86463 -2.96186e-19 -1.24415)
(7.62425 1.03904e-19 -1.15917)
(7.3283 1.60424e-19 -1.0767)
(6.98819 3.72504e-19 -0.995603)
(6.61335 5.40966e-19 -0.910653)
(6.20731 0 -0.817785)
(5.76924 -7.54966e-19 -0.716538)
(5.2977 7.61437e-19 -0.609313)
(4.79316 -8.11509e-19 -0.499308)
(4.25827 -1.6613e-18 -0.389045)
(3.69702 -3.57389e-18 -0.279962)
(3.11405 0 -0.172807)
(2.5144 0 -0.0679858)
(1.90392 -2.23344e-18 0.0339571)
(1.28909 0 0.132414)
(0.677714 2.40475e-18 0.226357)
(0.0774901 2.41121e-18 0.315219)
(-0.502968 0 0.398192)
(-1.05712 9.39912e-18 0.475401)
(-1.57691 4.67242e-18 0.545743)
(-2.05658 0 0.608545)
(-2.48427 4.87048e-18 0.66036)
(-2.84993 5.03961e-18 0.699117)
(-3.13425 0 0.720395)
(-3.32567 -1.02593e-17 0.723764)
(-3.40597 4.93692e-18 0.706698)
(-3.37462 9.13079e-18 0.671479)
(-3.2259 0 0.617291)
(-2.97367 -2.1902e-20 0.546996)
(-2.62203 -1.03802e-17 0.46075)
(-2.18737 0 0.360418)
(-1.6748 0 0.248197)
(-1.0965 6.55885e-19 0.124343)
(-0.466436 -2.08225e-19 -0.0046494)
(0.191186 9.06543e-19 -0.139076)
(0.841158 3.57593e-19 -0.266326)
(1.43517 -9.07689e-19 -0.382872)
(1.9405 2.24627e-18 -0.472202)
(2.2835 6.78877e-18 -0.519413)
(2.46313 0 -0.514231)
(2.3261 0 -0.418615)
(1.88672 1.25347e-17 -0.242757)
(0.878536 0 0.0697453)
(-0.60254 0 0.461035)
(-2.69859 -2.30351e-17 0.946369)
(-5.02933 0 1.42144)
(-7.37271 2.27896e-17 1.82285)
(-9.147 5.3388e-20 2.06248)
(-9.99275 -1.92041e-17 1.9888)
(-9.0891 0 1.49389)
(-6.62443 0 0.608548)
(-2.15301 0 -0.484018)
(1.00493 -4.69083e-19 -0.772402)
(1.10106 0 0.0239702)
(-4.70343 -3.38334e-17 2.02525)
(-12.97 7.81706e-17 3.78937)
(-19.1039 0 4.2287)
(-19.009 0 3.41597)
(-15.8426 0 2.31823)
(-10.3793 7.22169e-20 1.34621)
(-9.82797 -4.82674e-18 1.82041)
(-10.9863 1.13054e-17 2.37782)
(-14.6098 3.53471e-17 3.25759)
(-19.9289 -5.78261e-17 4.2704)
(-29.9442 0 6.95095)
(-36.0727 -7.7984e-17 7.65456)
(-40.5966 0 8.03827)
(-40.8886 -5.94205e-17 7.90511)
(-42.8592 0 8.20085)
(-42.1545 0 8.10042)
(-45.1678 0 8.81362)
(-46.8559 -8.89318e-17 9.32735)
(-52.0921 -1.18479e-16 10.2954)
(-51.4014 0 9.78778)
(-48.4208 1.17799e-16 8.47499)
(-34.9572 -6.58975e-17 5.29304)
(-23.7772 3.72313e-17 3.05113)
(-12.1989 1.65729e-17 1.5799)
(-16.6103 0 3.44345)
(-25.2719 0 6.29659)
(-51.4392 0 12.0894)
(-74.8605 0 16.8765)
(-105.528 -1.58225e-16 22.5293)
(-122.247 7.95438e-20 24.8388)
(-136.164 1.21319e-17 26.6598)
(-134.757 0 25.7306)
(-136.083 0 25.4887)
(-123.87 1.95067e-16 22.9739)
(-119.464 0 21.9176)
(-103.129 -2.02559e-16 18.8669)
(-99.2628 0 18.1977)
(-87.0738 -5.63241e-16 16.0746)
(-86.6827 0 16.2567)
(-80.8784 0 15.1301)
(-78.6838 8.73049e-17 14.9418)
(-77.5767 0 14.8311)
(-0.441245 0 -4.67044)
(-0.25227 2.50759e-19 -4.34595)
(-0.0861077 0 -4.02041)
(0.0726718 2.77022e-19 -3.69053)
(0.307621 5.54471e-19 -3.36556)
(0.649045 0 -3.05591)
(1.10624 -2.56853e-19 -2.7425)
(1.67365 0 -2.42587)
(2.3165 5.00543e-21 -2.18029)
(2.98189 8.48155e-19 -2.07624)
(3.64467 0 -2.06591)
(4.31625 0 -2.03194)
(4.99815 3.59363e-19 -1.92873)
(5.65862 0 -1.8114)
(6.26465 0 -1.73761)
(6.80733 0 -1.7025)
(7.28993 5.99327e-19 -1.67073)
(7.70969 5.57732e-19 -1.6261)
(8.05483 5.32477e-19 -1.57824)
(8.31315 0 -1.54253)
(8.48432 0 -1.52201)
(8.58327 3.6712e-19 -1.50269)
(8.62706 -3.06639e-19 -1.46425)
(8.6182 2.31464e-19 -1.39677)
(8.54404 2.7857e-19 -1.30749)
(8.39178 -1.77576e-19 -1.21196)
(8.16122 -4.42688e-20 -1.12045)
(7.86366 -3.50338e-19 -1.03235)
(7.51193 -5.08768e-19 -0.940522)
(7.11268 0 -0.838837)
(6.66618 0 -0.726141)
(6.17066 -7.1608e-19 -0.605475)
(5.62621 0 -0.48111)
(5.03595 1.56226e-18 -0.356346)
(4.40511 1.66918e-18 -0.232918)
(3.74004 -1.78382e-18 -0.111606)
(3.04755 0 0.00723852)
(2.3353 2.10005e-18 0.123014)
(1.61152 2.18899e-18 0.235015)
(0.885929 -1.42427e-20 0.34196)
(0.168135 -4.52265e-18 0.443124)
(-0.530753 0 0.537412)
(-1.20175 -4.4152e-18 0.624841)
(-1.83361 0 0.703778)
(-2.41802 0 0.773132)
(-2.93958 0 0.828374)
(-3.38587 5.66097e-21 0.866902)
(-3.73354 0 0.88333)
(-3.96926 4.82284e-18 0.87747)
(-4.07091 -9.28379e-18 0.846515)
(-4.03804 -8.58033e-18 0.7937)
(-3.86215 0 0.718216)
(-3.55959 6.32812e-18 0.623954)
(-3.13317 9.8103e-18 0.511232)
(-2.60427 0 0.382825)
(-1.97917 0 0.241779)
(-1.27805 -6.16106e-19 0.0891702)
(-0.519837 1.1249e-19 -0.0662538)
(0.260325 -4.08805e-19 -0.223886)
(1.01841 -2.17103e-19 -0.366965)
(1.69318 0 -0.490855)
(2.24216 0 -0.57431)
(2.57771 -6.56225e-21 -0.60102)
(2.69584 3.89055e-18 -0.558684)
(2.42857 0 -0.406063)
(1.8076 -5.87572e-18 -0.158866)
(0.552185 0 0.242685)
(-1.18801 0 0.720195)
(-3.56705 0 1.28593)
(-6.11476 0 1.80811)
(-8.62918 -5.21164e-20 2.21709)
(-10.4351 6.79406e-20 2.41101)
(-11.2229 1.785e-17 2.22508)
(-10.1182 0 1.56852)
(-7.46542 1.44908e-17 0.520318)
(-2.85952 0 -0.627517)
(0.025367 4.39857e-19 -0.70497)
(-0.41563 1.75392e-17 0.486972)
(-7.09237 -3.16345e-17 2.91253)
(-15.8421 -3.66314e-17 4.77118)
(-22.1227 0 4.97334)
(-21.6578 3.04638e-17 3.82537)
(-18.2911 0 2.54534)
(-12.713 -1.25547e-17 1.61752)
(-12.6782 -4.54444e-18 2.38083)
(-14.2115 -1.05909e-17 3.1185)
(-18.7662 0 4.25801)
(-24.7041 1.08617e-16 6.03321)
(-35.7808 0 8.46564)
(-42.2523 -7.31833e-17 9.0776)
(-47.2239 0 9.3974)
(-47.3767 -5.54634e-17 9.17697)
(-49.6061 0 9.49851)
(-48.7652 -2.49552e-17 9.39682)
(-52.3683 -2.68861e-17 10.2714)
(-54.1153 8.32223e-17 10.8435)
(-59.8215 1.10861e-16 11.8459)
(-58.4023 0 11.0372)
(-54.9651 -2.20588e-16 9.39072)
(-40.2236 1.23545e-16 5.82058)
(-29.3233 0 3.67956)
(-18.2708 -1.54996e-17 2.61506)
(-25.2833 0 5.31149)
(-36.3788 0 9.00714)
(-66.2801 1.64493e-16 15.7594)
(-92.1848 0 21.0644)
(-125.664 0 27.1213)
(-142.952 -9.46447e-17 29.2329)
(-157.893 -1.11895e-17 30.9609)
(-155.421 8.49015e-18 29.6181)
(-156.945 0 29.2548)
(-143.077 0 26.3457)
(-138.31 0 25.1546)
(-120.026 0 21.7551)
(-115.748 6.64305e-17 21.0597)
(-102.272 2.63148e-16 18.7686)
(-101.837 0 19.0216)
(-95.3749 0 17.7623)
(-93.0652 0 17.6075)
(-91.1068 0 17.3723)
(-0.173613 -2.56263e-19 -4.63945)
(0.00474053 0 -4.36967)
(0.147268 -2.63686e-19 -4.10663)
(0.267897 0 -3.83336)
(0.434011 -2.5876e-19 -3.55921)
(0.665171 0 -3.30021)
(0.96686 2.41408e-19 -3.04043)
(1.35049 -4.54279e-19 -2.76678)
(1.81353 -8.59308e-19 -2.52998)
(2.32099 6.88858e-21 -2.39966)
(2.8404 0 -2.35909)
(3.37837 0 -2.30855)
(3.95435 0 -2.18973)
(4.55926 0 -2.04469)
(5.16476 0 -1.93753)
(5.75224 0 -1.87404)
(6.31587 -6.01625e-19 -1.81971)
(6.84987 5.6196e-19 -1.75344)
(7.34056 -5.00316e-19 -1.68149)
(7.76701 0 -1.62083)
(8.11244 0 -1.58056)
(8.37795 -3.8735e-19 -1.55124)
(8.57881 -3.30026e-19 -1.50974)
(8.72359 -2.58728e-19 -1.43853)
(8.80157 0 -1.34029)
(8.79288 1.03485e-19 -1.23253)
(8.68745 -1.54065e-19 -1.13015)
(8.49149 2.39393e-19 -1.03469)
(8.21885 0 -0.937492)
(7.87947 0 -0.829593)
(7.47532 0 -0.708228)
(7.00411 6.1612e-19 -0.576648)
(6.46465 0 -0.440224)
(5.85949 0 -0.303213)
(5.1944 1.51392e-18 -0.167735)
(4.47712 1.67573e-18 -0.034583)
(3.71616 0 0.0960228)
(2.92104 1.93654e-18 0.223493)
(2.10178 -4.0948e-18 0.34709)
(1.27017 -2.11035e-18 0.465286)
(0.437851 2.1187e-18 0.57721)
(-0.381243 0 0.681412)
(-1.17532 0 0.777785)
(-1.92925 0 0.864081)
(-2.63176 4.18919e-18 0.938802)
(-3.26328 0 0.99623)
(-3.80886 -4.45343e-18 1.03325)
(-4.24036 -4.55783e-18 1.04339)
(-4.54226 0 1.02678)
(-4.68722 4.36054e-18 0.980256)
(-4.67419 0 0.908159)
(-4.49038 0 0.809632)
(-4.15425 5.99566e-18 0.689708)
(-3.66605 3.74854e-20 0.548872)
(-3.05236 -3.23329e-18 0.390878)
(-2.31988 0 0.21986)
(-1.49763 0 0.0377886)
(-0.609568 -1.05572e-19 -0.143798)
(0.296713 0 -0.32337)
(1.1676 2.03724e-19 -0.479381)
(1.92697 0 -0.606169)
(2.52184 0 -0.677445)
(2.84884 -5.95514e-18 -0.675668)
(2.90195 -7.27639e-18 -0.58714)
(2.49869 -4.42473e-18 -0.367871)
(1.69359 0 -0.0413208)
(0.193902 0 0.454664)
(-1.78886 -8.84139e-18 1.01806)
(-4.42356 -2.01791e-17 1.6575)
(-7.14582 0 2.21323)
(-9.78779 -1.99993e-17 2.61049)
(-11.5823 1.79281e-17 2.73794)
(-12.302 -1.67332e-17 2.42223)
(-11.0343 1.53663e-17 1.59993)
(-8.3137 -1.35818e-17 0.40871)
(-3.75005 0 -0.746718)
(-1.29795 0 -0.550205)
(-2.3032 -1.64345e-17 1.07681)
(-9.71522 5.92655e-17 3.91263)
(-18.7225 0 5.80311)
(-25.0298 0 5.70167)
(-24.2098 -2.85346e-17 4.18934)
(-20.7853 0 2.7542)
(-15.2344 0 1.9215)
(-15.8001 4.25544e-18 3.01842)
(-17.7435 -1.01501e-17 3.96063)
(-23.181 0 5.33227)
(-29.6471 -5.0979e-17 8.15329)
(-41.7409 0 10.0461)
(-48.313 6.84966e-17 10.5064)
(-53.6263 -6.17268e-17 10.7214)
(-53.5423 5.19017e-17 10.3876)
(-55.973 3.69069e-17 10.7232)
(-54.9352 3.59748e-19 10.6178)
(-59.0939 2.51526e-17 11.6539)