/*--------------------------------*- C++ -*----------------------------------*\
| =========                 |                                                 |
| \\      /  F ield         | OpenFOAM: The Open Source CFD Toolbox           |
|  \\    /   O peration     | Version:  2412                                  |
|   \\  /    A nd           | Website:  www.openfoam.com                      |
|    \\/     M anipulation  |                                                 |
\*---------------------------------------------------------------------------*/
FoamFile
{
    version     2.0;
    format      ascii;
    arch        "LSB;label=32;scalar=64";
    class       surfaceScalarField;
    location    "0.25";
    object      phi;
}
// * * * * * * * * * * * * * * * * * * * * * * * * * * * * * * * * * * * * * //

dimensions      [0 3 -1 0 0 0 0];

oriented        oriented;

internalField   nonuniform List<scalar> 
24930
(
0.0179995
0.01278
-0.0307851
0.01062
0.00737945
0.00696101
0.00365901
0.00518086
0.00178016
0.0042067
0.000974159
0.00358253
0.000624168
0.00313573
0.000446794
0.00279561
0.000340126
0.00252596
0.000269649
0.00230567
0.000220282
0.00212157
0.0001841
0.0019649
0.000156668
0.00182961
0.000135298
0.00171132
0.000118283
0.00160684
0.000104484
0.00151372
9.31183e-05
0.00143009
8.36283e-05
0.00135448
7.56106e-05
0.00128571
6.87661e-05
0.00122284
6.28695e-05
0.00116509
5.77483e-05
0.00111182
5.32679e-05
0.0010625
4.93221e-05
0.00101668
4.58258e-05
0.000973965
4.27103e-05
0.000934044
3.99203e-05
0.000896633
3.74105e-05
0.000861489
3.51434e-05
0.0008284
3.30877e-05
0.000797182
3.12173e-05
0.000767672
2.95094e-05
0.000739726
2.79453e-05
0.000713217
2.65084e-05
0.000688032
2.5185e-05
0.000664068
2.39631e-05
0.000641235
2.28326e-05
0.00061945
2.1784e-05
0.00059864
2.08103e-05
0.000578735
1.99038e-05
0.000559675
1.90595e-05
0.000541404
1.82709e-05
0.000523869
1.75348e-05
0.000507023
1.68454e-05
0.000490822
1.62007e-05
0.000475227
1.55947e-05
0.0004602
1.50266e-05
0.000445709
1.44911e-05
0.00043172
1.39889e-05
0.000418204
1.35156e-05
0.000405132
1.30728e-05
0.000392474
1.26573e-05
0.000380204
1.22701e-05
0.000368296
1.19088e-05
0.000356722
1.15733e-05
0.00034546
1.12627e-05
0.000334484
1.09763e-05
0.000323768
1.07156e-05
0.000313287
1.04815e-05
0.00030301
1.02763e-05
0.000292906
1.01047e-05
0.000282941
9.96504e-06
0.000273076
9.86426e-06
0.000263282
9.79401e-06
0.000253529
9.75258e-06
0.000243799
9.7298e-06
0.00023412
9.67858e-06
0.00022452
9.59919e-06
0.00021517
9.35055e-06
0.000206174
8.99559e-06
0.000197828
8.34665e-06
0.00019024
7.58887e-06
0.000183616
6.62501e-06
0.000177893
5.72307e-06
0.000172705
5.18769e-06
0.000167207
5.49745e-06
0.00016003
7.17539e-06
0.000150108
9.91993e-06
0.000138394
1.17141e-05
0.000127322
1.10721e-05
0.000120516
6.80752e-06
0.00011838
2.13763e-06
0.000118388
-8.50603e-09
0.000117356
1.03143e-06
0.00011304
4.31491e-06
0.000105563
7.47502e-06
9.75796e-05
7.98295e-06
8.9379e-05
8.20021e-06
8.33339e-05
6.04534e-06
8.42471e-05
-9.11376e-07
9.44831e-05
-1.0234e-05
0.000111193
-1.67087e-05
0.000132128
-2.09335e-05
0.000154633
-2.25036e-05
0.00017853
-2.38946e-05
0.00020259
-2.40581e-05
0.000230907
-2.83144e-05
0.000263512
-3.26029e-05
0.00030485
-4.1336e-05
0.000347089
-4.22402e-05
0.000386478
-3.93913e-05
0.00040673
-2.02573e-05
0.000411326
-4.60322e-06
0.000396016
1.53049e-05
0.000381134
1.48744e-05
0.000370913
1.02208e-05
0.000389644
-1.87277e-05
0.000443582
-5.39319e-05
0.000532819
-8.92302e-05
0.000662525
-0.000129702
0.000802264
-0.000139735
0.0009707
-0.000168435
0.00113091
-0.00016021
0.00131299
-0.000182084
0.00147067
-0.000157681
0.00165065
-0.000179978
0.00179803
-0.000147377
0.00198964
-0.000191613
0.002156
-0.000166361
0.00243596
-0.000279956
-0.000364762
0.0337316
0.0163528
-0.0373044
0.0277841
0.0133269
0.0222202
0.00922296
0.0179366
0.00606372
0.0148836
0.00402713
0.0127184
0.00278943
0.0111279
0.00203726
0.00990835
0.00155969
0.0089392
0.0012388
0.00814732
0.00101216
0.00748586
0.000845563
0.00692343
0.000719094
0.00643821
0.000620518
0.00601449
0.000542004
0.00564064
0.000478329
0.00530788
0.000425884
0.0050094
0.000382106
0.00473987
0.000345132
0.00449506
0.000313583
0.00427151
0.000286417
0.00406642
0.000262836
0.00387747
0.000242216
0.00370273
0.000224065
0.00354056
0.000207991
0.00338959
0.000193677
0.00324865
0.000180865
0.00311671
0.000169347
0.0029929
0.000158948
0.00287646
0.000149525
0.00276672
0.000140954
0.0026631
0.000133132
0.00256507
0.000125972
0.00247218
0.000119397
0.00238402
0.000113345
0.00230022
0.000107759
0.00222046
0.000102593
0.00214444
9.78042e-05
0.00207189
9.33585e-05
0.00200257
8.9222e-05
0.00193626
8.53699e-05
0.00187276
8.17748e-05
0.00181187
7.84192e-05
0.00175344
7.52792e-05
0.0016973
7.23422e-05
0.0016433
6.95859e-05
0.00159133
6.70025e-05
0.00154125
6.45728e-05
0.00149294
6.2295e-05
0.0014463
6.01547e-05
0.00140122
5.81536e-05
0.00135759
5.62808e-05
0.00131533
5.45364e-05
0.00127433
5.29123e-05
0.00123449
5.14043e-05
0.00119575
5.00108e-05
0.001158
4.87251e-05
0.00112116
4.75557e-05
0.00108514
4.64988e-05
0.00104985
4.55704e-05
0.00101518
4.47715e-05
0.000981035
4.41129e-05
0.000947309
4.35904e-05
0.000913904
4.3199e-05
0.000880767
4.28904e-05
0.000847847
4.26496e-05
0.000815267
4.22583e-05
0.000783147
4.17201e-05
0.000752006
4.04914e-05
0.000722187
3.88149e-05
0.000694536
3.59973e-05
0.000669305
3.28199e-05
0.000647088
2.8843e-05
0.000627391
2.54197e-05
0.000609137
2.34418e-05
0.000589378
2.52557e-05
0.000564399
3.21534e-05
0.000531518
4.28008e-05
0.000494492
4.87406e-05
0.000460918
4.46472e-05
0.000440986
2.67395e-05
0.000434224
8.89979e-06
0.000433196
1.01755e-06
0.000427916
6.31073e-06
0.000413211
1.90185e-05
0.00039016
3.05255e-05
0.000366388
3.17565e-05
0.000343033
3.1557e-05
0.000328834
2.02468e-05
0.000337238
-9.31349e-06
0.000373656
-4.6651e-05
0.000430182
-7.32346e-05
0.000498934
-8.96862e-05
0.000573894
-9.74638e-05
0.000651966
-0.000101967
0.000733989
-0.000106081
0.000827694
-0.000122019
0.00093832
-0.000143228
0.00106992
-0.000172938
0.00120474
-0.000177054
0.00132192
-0.000156577
0.00138539
-8.37291e-05
0.00139998
-1.91914e-05
0.00136835
4.69327e-05
0.00134291
4.03178e-05
0.00134989
3.24458e-06
0.00144874
-0.000117574
0.00166352
-0.000268713
0.00198422
-0.000409935
0.00241995
-0.000565447
0.00289211
-0.000611891
0.00343662
-0.000712953
0.00396749
-0.000691082
0.00454891
-0.000763507
0.00506877
-0.000677537
0.00564717
-0.000758378
0.00613873
-0.000638942
0.00676443
-0.000817305
0.007315
-0.00071693
0.00821704
-0.001182
-0.00148643
0.0415082
0.0160499
-0.0412053
0.0392137
0.0156214
0.0352765
0.0131602
0.0309815
0.0103587
0.0270583
0.0079503
0.0237622
0.0060856
0.0210819
0.0047175
0.0189085
0.00373309
0.0171271
0.00302024
0.0156448
0.00249445
0.0143925
0.00209785
0.0133198
0.00179181
0.0123896
0.00155066
0.0115745
0.0013571
0.0108536
0.00119924
0.0102108
0.00106866
0.00963364
0.000959316
0.00911203
0.000866737
0.00863803
0.000787588
0.00820511
0.000719334
0.00780793
0.000660015
0.00744204
0.0006081
0.00710374
0.000562369
0.00678988
0.000521848
0.0064978
0.00048575
0.00622523
0.000453433
0.00597021
0.000424372
0.00573102
0.000398134
0.00550619
0.000374353
0.00529442
0.000352723
0.00509457
0.000332983
0.00490563
0.000314912
0.0047267
0.00029832
0.004557
0.000283048
0.0043958
0.000268955
0.00424247
0.000255922
0.00409643
0.000243843
0.00395716
0.00023263
0.00382418
0.000222199
0.00369707
0.000212486
0.00357542
0.000203423
0.00345887
0.000194964
0.0033471
0.000187053
0.00323978
0.000179653
0.00313666
0.000172713
0.00303745
0.000166211
0.00294192
0.000160104
0.00284983
0.000154381
0.00276097
0.000149013
0.00267513
0.000143998
0.0025921
0.000139311
0.00251169
0.000134947
0.00243371
0.000130891
0.00235799
0.000127125
0.00228435
0.000123649
0.00221263
0.000120441
0.00214267
0.000117521
0.0020743
0.000114872
0.00200733
0.000112535
0.00194162
0.000110488
0.00187696
0.000108774
0.00181321
0.000107341
0.00175019
0.000106211
0.00168787
0.000105213
0.00162617
0.000104352
0.00156535
0.00010308
0.00150564
0.000101428
0.00144796
9.81739e-05
0.00139287
9.38971e-05
0.00134179
8.70789e-05
0.00129501
7.96029e-05
0.00125346
7.0394e-05
0.00121596
6.29182e-05
0.00118065
5.87564e-05
0.00114215
6.3748e-05
0.00109473
7.9572e-05
0.00103455
0.000102984
0.000969124
0.000114166
0.000911505
0.000102267
0.000877968
6.02766e-05
0.000865692
2.11754e-05
0.000862138
4.57054e-06
0.000850159
1.82868e-05
0.000822985
4.61915e-05
0.000783202
7.03086e-05
0.000743595
7.13642e-05
0.000706518
6.86355e-05
0.000688468
3.82983e-05
0.000710965
-3.18092e-05
0.000781518
-0.000117203
0.000886801
-0.000178516
0.00101266
-0.000215546
0.00115039
-0.000235189
0.00129304
-0.000244622
0.00144595
-0.00025899
0.00161862
-0.000294683
0.00182326
-0.000347873
0.00205825
-0.000407926
0.00229699
-0.00041579
0.00249714
-0.000356735
0.00260984
-0.000196422
0.00264153
-5.08841e-05
0.00261148
7.69765e-05
0.00260279
4.9007e-05
0.002671
-6.49602e-05
0.00290437
-0.000350942
0.00334556
-0.000709908
0.0039656
-0.00102998
0.00477582
-0.00137566
0.00564945
-0.00148552
0.00663634
-0.00169984
0.00760569
-0.00166044
0.00865133
-0.00180915
0.00959876
-0.00162497
0.0106448
-0.00180441
0.0115493
-0.00154349
0.0126911
-0.00195905
0.0137005
-0.00172633
0.015311
-0.00279249
-0.00346148
0.0459732
0.014751
-0.0446743
0.0460548
0.0155397
0.0444726
0.0147424
0.0417435
0.0130879
0.0384931
0.0112006
0.0351811
0.00939763
0.0320757
0.00782295
0.0292916
0.00651714
0.026848
0.00546385
0.0247188
0.00462369
0.0228627
0.00395392
0.0212378
0.00341672
0.0198067
0.00298171
0.0185382
0.00262557
0.0174067
0.00233078
0.0163912
0.00208417
0.0154747
0.00187582
0.0146432
0.00169819
0.0138854
0.00154547
0.0131915
0.00141317
0.0125538
0.00129777
0.0119654
0.00119645
0.0114208
0.00110698
0.0109151
0.00102753
0.0104442
0.000956629
0.0100046
0.00089306
0.00959315
0.000835824
0.00920719
0.000784091
0.00884438
0.000737161
0.00850266
0.000694443
0.00818021
0.000655431
0.00787542
0.000619698
0.00758686
0.000586876
0.00731326
0.00055665
0.00705346
0.00052875
0.00680644
0.000502941
0.00657127
0.000479016
0.0063471
0.000456801
0.00613316
0.000436134
0.00592876
0.000416884
0.00573326
0.000398925
0.00554606
0.000382158
0.00536664
0.000366478
0.00519448
0.000351811
0.00502913
0.000338063
0.00487016
0.000325184
0.00471716
0.000313097
0.00456976
0.000301778
0.00442761
0.000291172
0.00429034
0.000281267
0.00415762
0.000272022
0.00402915
0.000263419
0.00390462
0.000255428
0.00378373
0.000248015
0.0036662
0.000241174
0.00355178
0.000234859
0.0034402
0.000229109
0.0033312
0.000223871
0.0032245
0.000219227
0.00311989
0.000215103
0.00301707
0.000211594
0.00291587
0.000208546
0.00281604
0.000206035
0.00271758
0.000203677
0.00262041
0.000201524
0.00252497
0.000198517
0.00243163
0.000194768
0.00234173
0.000188077
0.00225604
0.000179584
0.00217651
0.000166606
0.00210339
0.00015273
0.00203785
0.000135927
0.00197783
0.000122943
0.00192056
0.000116024
0.00185813
0.000126182
0.0017831
0.000154592
0.00169103
0.000195059
0.001594
0.000211191
0.00151055
0.000185723
0.00146245
0.000108376
0.00144332
4.03078e-05
0.00143521
1.26747e-05
0.00141399
3.95024e-05
0.00137241
8.77747e-05
0.00131501
0.000127704
0.00126016
0.000126216
0.00121183
0.000116969
0.00119522
5.49133e-05
0.00123937
-7.59611e-05
0.00135298
-0.000230805
0.00151682
-0.000342363
0.0017101
-0.000408819
0.00192171
-0.000446798
0.00214074
-0.000463651
0.00237835
-0.000496605
0.00264508
-0.000561413
0.00296
-0.000662785
0.00331244
-0.000760371
0.0036664
-0.000769742
0.00395741
-0.00064775
0.00412795
-0.000366967
0.00419043
-0.000113368
0.00418589
8.15156e-05
0.00423054
4.35496e-06
0.00441158
-0.000245992
0.00484195
-0.000781311
0.00558181
-0.00144977
0.00657479
-0.00202296
0.0078345
-0.00263537
0.00918339
-0.00283441
0.0106879
-0.00320437
0.0121682
-0.00314068
0.0137541
-0.00339511
0.0152002
-0.0030711
0.0167958
-0.00339996
0.0181892
-0.00293694
0.0199402
-0.00371002
0.0214927
-0.00327885
0.0238954
-0.00519518
-0.00639686
0.0494417
0.0135575
-0.0482482
0.0504047
0.0145767
0.0504216
0.0147255
0.049397
0.0141125
0.0475484
0.0130493
0.0451686
0.0117774
0.0425296
0.0104619
0.0398385
0.00920831
0.0372302
0.00807206
0.0347797
0.00707421
0.0325192
0.0062144
0.0304548
0.00548119
0.0285779
0.00485856
0.0268737
0.0043298
0.0253249
0.00387953
0.0239147
0.00349439
0.0226273
0.00316324
0.0214486
0.00287688
0.0203662
0.00262784
0.0193693
0.00241006
0.0184485
0.00221858
0.0175956
0.00204938
0.0168034
0.00189913
0.0160659
0.00176509
0.0153775
0.00164499
0.0147336
0.00153695
0.0141301
0.00143938
0.0135632
0.00135097
0.0130297
0.00127059
0.0125269
0.00119728
0.0120521
0.00113022
0.0116031
0.00106871
0.0111778
0.00101213
0.0107745
0.00095997
0.0103915
0.000911773
0.0100273
0.00086715
0.00968055
0.000825752
0.00935006
0.000787284
0.00903472
0.000751475
0.0087335
0.000718104
0.00844547
0.000686955
0.00816977
0.000657861
0.0079056
0.000630646
0.00765223
0.000605181
0.00740898
0.000581313
0.00717521
0.000558952
0.00695032
0.000537979
0.00673376
0.000518341
0.00652498
0.000499954
0.00632346
0.000482788
0.0061287
0.000466779
0.00594023
0.000451886
0.0057576
0.000438062
0.00558037
0.000425243
0.00540813
0.000413418
0.00524049
0.000402499
0.00507705
0.000392546
0.00491747
0.000383449
0.00476136
0.000375339
0.00460841
0.000368052
0.00445826
0.000361751
0.00431069
0.000356113
0.00416543
0.0003513
0.00402251
0.000346592
0.00388189
0.000342141
0.00374425
0.000336162
0.00361008
0.000328943
0.00348117
0.000316981
0.00335847
0.000302284
0.00324444
0.000280638
0.00313912
0.000258051
0.00304389
0.00023116
0.00295554
0.000211289
0.00287041
0.000201154
0.00277796
0.00021863
0.00266959
0.000262959
0.00254072
0.000323934
0.00240875
0.000343155
0.00229742
0.000297063
0.00223329
0.000172497
0.0022053
6.82973e-05
0.00219012
2.786e-05
0.0021569
7.27228e-05
0.00209917
0.000145502
0.00202372
0.000203153
0.00195499
0.000194945
0.00189894
0.000173024
0.00189028
6.35707e-05
0.00196468
-0.000150363
0.00213124
-0.000397358
0.00236431
-0.000575432
0.00263607
-0.000680577
0.00293342
-0.000744155
0.0032415
-0.000771729
0.0035786
-0.000833707
0.00395532
-0.000938126
0.00439723
-0.00110469
0.00488146
-0.0012446
0.00536261
-0.00125089
0.00575427
-0.00103941
0.00599544
-0.000608143
0.00610827
-0.000226194
0.0061612
2.85846e-05
0.00630378
-0.000138227
0.00665769
-0.000599902
0.00735476
-0.00147838
0.00847153
-0.00256654
0.00991623
-0.00346767
0.0117063
-0.0044254
0.0136093
-0.00473745
0.0157138
-0.00530886
0.0177842
-0.00521111
0.0199954
-0.00560634
0.0220201
-0.00509581
0.0242569
-0.00563672
0.0262252
-0.00490528
0.028687
-0.00617181
0.0308795
-0.00547129
0.0341558
-0.00847147
-0.0103937
0.0529029
0.0126602
-0.0520055
0.0539305
0.0135491
0.0546135
0.0140425
0.0546812
0.0140448
0.0540806
0.0136499
0.0528808
0.0129772
0.0512111
0.0121317
0.0492179
0.0112015
0.0470362
0.0102538
0.0447768
0.00933361
0.0425221
0.00846906
0.0403285
0.00767485
0.0382305
0.0069565
0.0362469
0.00631345
0.034385
0.00574145
0.032645
0.00523437
0.0310229
0.00478536
0.0295122
0.00438759
0.0281053
0.00403468
0.0267945
0.00372086
0.025572
0.00344108
0.0244305
0.0031909
0.0233631
0.00296652
0.0223636
0.00276462
0.0214262
0.00258238
0.0205458
0.00241739
0.0197176
0.00226758
0.0189374
0.00213117
0.0182013
0.00200663
0.017506
0.00189262
0.0168482
0.00178799
0.0162252
0.00169173
0.0156344
0.00160297
0.0150734
0.00152096
0.0145401
0.00144502
0.0140327
0.00137459
0.0135493
0.00130914
0.0130883
0.00124823
0.0126483
0.00119146
0.012228
0.00113849
0.0118259
0.001089
0.011441
0.00104272
0.0110723
0.000999402
0.0107186
0.000958837
0.0103791
0.0009208
0.0100529
0.000885151
0.00973921
0.000851713
0.00943715
0.000820402
0.00914601
0.000791093
0.00886507
0.000763733
0.00859362
0.000738225
0.00833101
0.0007145
0.00807659
0.000692486
0.00782975
0.000672077
0.00758992
0.000653253
0.00735655
0.000635866
0.0071291
0.000619996
0.00690711
0.000605446
0.00669004
0.000592404
0.00647753
0.000580561
0.00626912
0.000570165
0.00606459
0.000560638
0.00586363
0.000552262
0.00566639
0.000543834
0.00547285
0.000535678
0.00528398
0.000525035
0.0051004
0.000512527
0.00492439
0.000492984
0.00475698
0.000469694
0.00460112
0.000436501
0.00445649
0.000402677
0.00432459
0.000363069
0.00420089
0.000334987
0.00408084
0.000321198
0.00395137
0.000348102
0.00380328
0.000411043
0.00363235
0.000494873
0.00346183
0.000513667
0.0033201
0.000438799
0.0032378
0.0002548
0.00319817
0.000107919
0.00317281
5.32236e-05
0.00312465
0.000120876
0.00304926
0.000220896
0.00295577
0.000296638
0.00287533
0.000275386
0.00281628
0.000232079
0.00282309
5.67635e-05
0.0029372
-0.000264469
0.00316727
-0.000627425
0.00348081
-0.000888978
0.00384255
-0.00104231
0.00423798
-0.00113959
0.00464821
-0.00118195
0.0051001
-0.0012856
0.0056029
-0.00144092
0.00618869
-0.00169048
0.00681911
-0.00187502
0.00744058
-0.00187236
0.00794522
-0.00154405
0.00827459
-0.000937514
0.00846339
-0.000415
0.0086128
-0.000120829
0.00890478
-0.000430209
0.00949751
-0.00119263
0.0105351
-0.00251594
0.0121105
-0.00414202
0.0140892
-0.00544635
0.0164943
-0.00683052
0.0190355
-0.00727857
0.0218286
-0.00810198
0.0245759
-0.00795846
0.0275063
-0.00853666
0.030199
-0.0077885
0.0331776
-0.00861539
0.0358173
-0.00754499
0.0390975
-0.00945194
0.0420406
-0.00841445
0.0462693
-0.0127001
-0.0155424
0.0566261
0.0119737
-0.0559396
0.0574789
0.0126962
0.0582748
0.0132466
0.0588007
0.0135189
0.0589343
0.0135163
0.0586295
0.013282
0.0578956
0.0128656
0.0567803
0.0123168
0.055352
0.011682
0.0536863
0.0109993
0.0518566
0.0102987
0.0499285
0.00960298
0.0479566
0.00892834
0.0459842
0.00828584
0.0440434
0.00768223
0.0421568
0.00712097
0.0403392
0.00660303
0.0385991
0.00612761
0.036941
0.0056928
0.0353659
0.00529598
0.0338727
0.00493425
0.0324591
0.00460459
0.0311215
0.00430403
0.0298564
0.00402975
0.0286597
0.00377914
0.0275272
0.00354982
0.0264551
0.00333965
0.0254396
0.00314672
0.0244769
0.00296931
0.0235637
0.00280587
0.0226966
0.00265503
0.0218728
0.00251558
0.0210893
0.00238642
0.0203437
0.00226659
0.0196334
0.00215526
0.0189564
0.00205165
0.0183104
0.00195511
0.0176936
0.00186503
0.0171042
0.00178087
0.0165405
0.00170217
0.016001
0.00162851
0.0154842
0.0015595
0.0149888
0.00149481
0.0145135
0.00143415
0.0140571
0.0013772
0.0136185
0.00132378
0.0131965
0.00127364
0.0127903
0.00122667
0.0123987
0.00118268
0.0120208
0.0011416
0.0116557
0.0011033
0.0113026
0.00106768
0.0109604
0.00103462
0.0106285
0.00100397
0.0103061
0.000975698
0.00999238
0.000949572
0.00968669
0.000925695
0.0093884
0.000903737
0.00909685
0.000883951
0.0088116
0.000865814
0.00853209
0.000849675
0.00825814
0.000834589
0.0079894
0.000820996
0.0077262
0.00080704
0.00746856
0.000793311
0.0072178
0.000775797
0.00697465
0.000755676
0.00674192
0.000725718
0.0065206
0.000691016
0.0063141
0.000643001
0.00612158
0.000595194
0.00594457
0.000540085
0.00577708
0.000502477
0.0056138
0.000484477
0.00543927
0.000522631
0.0052444
0.000605911
0.00502567
0.000713599
0.00481257
0.000726765
0.00463725
0.00061412
0.00453372
0.000358327
0.00447884
0.000162799
0.00443963
9.24361e-05
0.00437345
0.000187058
0.00427906
0.00031528
0.004168
0.000407695
0.00407884
0.000364548
0.0040224
0.000288525
0.00405327
2.58904e-05
0.00421717
-0.000428362
0.00452174
-0.000931993
0.00492726
-0.0012945
0.00539045
-0.0015055
0.00589625
-0.00164539
0.00642151
-0.00170722
0.00700327
-0.00186736
0.00764765
-0.00208531
0.00839375
-0.00243657
0.00918462
-0.0026659
0.00996091
-0.00264865
0.0105936
-0.00217671
0.0110335
-0.0013775
0.0113291
-0.00071057
0.0116202
-0.000411958
0.0121168
-0.000926788
0.0130174
-0.00209326
0.0144703
-0.00396876
0.0165869
-0.00625862
0.0191831
-0.00804257
0.0222908
-0.00993821
0.0255575
-0.0105453
0.0291334
-0.0116779
0.0326515
-0.0114765
0.036403
-0.0122882
0.0398626
-0.0112481
0.043691
-0.0124437
0.0471088
-0.0109629
0.051317
-0.0136601
0.0551355
-0.0122329
0.0603923
-0.0179569
-0.0219168
0.0606345
0.0114109
-0.0600716
0.0613184
0.0120124
0.0620324
0.0125326
0.0626537
0.0128975
0.0630848
0.0130852
0.0632616
0.0131052
0.0631484
0.0129788
0.0627346
0.0127306
0.0620303
0.0123863
0.0610601
0.0119695
0.0598584
0.0115004
0.058465
0.0109965
0.056921
0.0104723
0.0552666
0.0099402
0.0535388
0.00940997
0.0517702
0.00888957
0.0499882
0.00838506
0.048215
0.00790087
0.0464678
0.00743998
0.0447596
0.00700416
0.0430997
0.00659418
0.0414942
0.00621008
0.0399469
0.00585127
0.0384599
0.0055168
0.0370336
0.00520541
0.0356677
0.00491575
0.0343609
0.0046464
0.0331117
0.00439595
0.031918
0.00416302
0.0307776
0.00394627
0.0296882
0.00374444
0.0286474
0.00355635
0.0276529
0.00338089
0.0267024
0.00321707
0.0257937
0.00306398
0.0249246
0.00292079
0.024093
0.00278672
0.0232969
0.0026611
0.0225345
0.00254329
0.0218039
0.00243274
0.0211035
0.00232892
0.0204316
0.0022314
0.0197867
0.00213974
0.0191673
0.00205358
0.0185719
0.00197254
0.0179993
0.00189638
0.0174482
0.0018248
0.0169172
0.00175764
0.0164052
0.00169469
0.0159109
0.00163585
0.0154333
0.00158096
0.0149711
0.00152985
0.0145233
0.00148242
0.0140888
0.00143842
0.0136667
0.00139783
0.013256
0.00136028
0.0128558
0.00132592
0.0124653
0.00129423
0.0120837
0.00126553
0.0117105
0.001239
0.0113451
0.00121511
0.0109873
0.0011924
0.0106368
0.00117152
0.010294
0.00114975
0.00995927
0.00112808
0.00963414
0.00110093
0.00931948
0.00107033
0.00901864
0.00102656
0.00873248
0.000977173
0.00846485
0.000910635
0.00821417
0.00084587
0.00798198
0.000772282
0.00776069
0.000723769
0.00754445
0.000700716
0.0073157
0.000751378
0.00706618
0.000855426
0.00679334
0.000986441
0.00653297
0.000987135
0.00631996
0.000827136
0.00619108
0.0004872
0.00611635
0.000237528
0.006059
0.000149787
0.0059715
0.000274558
0.00585691
0.000429868
0.00572909
0.000535509
0.00563488
0.000458766
0.00558769
0.000335713
0.00565147
-3.78873e-05
0.00587574
-0.000652624
0.00626575
-0.001322
0.00677449
-0.00180324
0.00735
-0.00208101
0.0079777
-0.00227308
0.00862976
-0.00235928
0.00935515
-0.00259274
0.0101549
-0.00288507
0.0110765
-0.0033582
0.0120417
-0.003631
0.0129886
-0.00359563
0.0137669
-0.00295494
0.014344
-0.0019546
0.0147805
-0.00114709
0.0152615
-0.000893009
0.0160181
-0.00168338
0.0172939
-0.003369
0.0192329
-0.00590777
0.0219696
-0.00899537
0.0252652
-0.0113382
0.0291631
-0.0138361
0.033245
-0.0146272
0.0377015
-0.0161343
0.0420901
-0.0158651
0.0467717
-0.0169698
0.0511065
-0.0155829
0.0558962
-0.0172335
0.0602084
-0.0152751
0.0654515
-0.0189033
0.0702807
-0.017062
0.0766395
-0.0243158
-0.0295686
0.0649218
0.0109265
-0.0644374
0.0654868
0.0114473
0.066094
0.0119254
0.0666782
0.0123134
0.0671767
0.0125867
0.0675411
0.0127408
0.0677359
0.012784
0.0677371
0.0127294
0.0675315
0.012592
0.0671148
0.0123863
0.0664905
0.0121247
0.0656692
0.0118178
0.0646666
0.0114749
0.0635025
0.0111042
0.0621998
0.0107127
0.0607824
0.0103069
0.0592748
0.00989266
0.0577005
0.00947518
0.0560813
0.00905918
0.0544367
0.00864871
0.0527838
0.00824714
0.0511367
0.00785718
0.0495071
0.00748087
0.0479042
0.00711965
0.0463352
0.00677439
0.0448054
0.00644554
0.0433186
0.00613324
0.0418772
0.00583731
0.0404828
0.0055574
0.0391361
0.00529299
0.0378372
0.00504342
0.0365855
0.00480801
0.0353804
0.00458601
0.0342207
0.0043767
0.0331054
0.00417936
0.0320329
0.0039933
0.0310017
0.00381784
0.0300105
0.00365235
0.0290575
0.00349623
0.0281413
0.00334894
0.0272603
0.00320994
0.0264129
0.00307878
0.0255977
0.002955
0.024813
0.00283822
0.0240575
0.00272803
0.0233298
0.00262416
0.0226283
0.00252629
0.0219517
0.00243425
0.0212985
0.00234781
0.0206675
0.00226687
0.0200572
0.00219124
0.0194663
0.00212075
0.0188935
0.00205526
0.0183375
0.00199444
0.017797
0.00193829
0.017271
0.0018863
0.0167583
0.00183865
0.0162579
0.00179458
0.0157689
0.00175449
0.0152908
0.00171714
0.0148228
0.00168315
0.0143648
0.00165038
0.0139165
0.00161975
0.0134789
0.00158743
0.013052
0.00155496
0.0126381
0.00151483
0.0122381
0.00147035
0.0118559
0.00140878
0.0114921
0.00134097
0.0111509
0.00125177
0.01083
0.00116682
0.0105307
0.00107153
0.0102439
0.00101058
0.00996349
0.000981155
0.00967012
0.00104474
0.00935717
0.00116838
0.00902309
0.00132051
0.00870988
0.00130035
0.00845391
0.0010831
0.00829434
0.000646771
0.00819414
0.000337728
0.0081137
0.000230229
0.00800128
0.000386971
0.00786519
0.000565962
0.00772159
0.000679106
0.00762646
0.0005539
0.00759552
0.000366646
0.00770158
-0.000143943
0.00799644
-0.000947479
0.00848222
-0.00180778
0.00910448
-0.0024255
0.00980174
-0.00277828
0.0105612
-0.0030325
0.0113494
-0.00314751
0.0122295
-0.0034728
0.0131952
-0.00385084
0.0143053
-0.00446831
0.0154572
-0.00478289
0.0165917
-0.00473012
0.0175346
-0.00389786
0.0182777
-0.00269771
0.0188897
-0.001759
0.0196078
-0.0016112
0.0206743
-0.00274988
0.0223848
-0.00507946
0.0248713
-0.00839431
0.0282987
-0.0124228
0.0323701
-0.0154095
0.0371426
-0.0186086
0.0421286
-0.0196132
0.0475637
-0.0215695
0.0529272
-0.0212285
0.0586514
-0.022694
0.0639781
-0.0209096
0.0698404
-0.0230958
0.0751702
-0.0206049
0.0815467
-0.0252798
0.0875261
-0.0230414
0.0950594
-0.0318491
-0.038524
0.069497
0.0104991
-0.0690695
0.0699802
0.010964
0.0705004
0.0114053
0.0710217
0.0117921
0.0715045
0.0121038
0.0719151
0.0123302
0.0722275
0.0124716
0.0724221
0.0125347
0.072485
0.0125291
0.072406
0.0124652
0.0721782
0.0123525
0.0717976
0.0121983
0.0712637
0.0120089
0.0705786
0.0117893
0.0697478
0.0115436
0.0687796
0.0112751
0.0676854
0.0109869
0.0664783
0.0106822
0.0651735
0.010364
0.0637867
0.0100354
0.0623342
0.00969968
0.0608316
0.00935982
0.0592936
0.00901879
0.057734
0.00867927
0.0561648
0.00834361
0.0545965
0.0080138
0.0530382
0.00769153
0.0514974
0.00737812
0.0499802
0.00707461
0.0484915
0.0067817
0.0470351
0.00649984
0.0456138
0.00622926
0.0442298
0.00597002
0.0428844
0.00572208
0.0415786
0.00548524
0.0403126
0.0052593
0.0390865
0.00504393
0.0379
0.00483883
0.0367526
0.00464361
0.0356436
0.00445794
0.0345721
0.00428143
0.0335371
0.00411376
0.0325376
0.00395455
0.0315723
0.00380351
0.03064
0.00366028
0.0297395
0.00352465
0.0288695
0.00339633
0.0280285
0.00327521
0.0272152
0.00316111
0.0264282
0.00305394
0.0256659
0.00295355
0.0249268
0.00285977
0.0242096
0.00277248
0.0235128
0.0026913
0.0228348
0.00261624
0.0221745
0.00254664
0.0215304
0.00248273
0.0209015
0.00242345
0.0202867
0.00236931
0.0196853
0.00231852
0.0190966
0.00227187
0.0185207
0.00222635
0.0179572
0.00218321
0.0174074
0.0021372
0.0168717
0.00209064
0.0163529
0.00203369
0.0158518
0.00197143
0.015373
0.00188754
0.0149169
0.00179715
0.0144879
0.0016807
0.0140827
0.00157207
0.0137026
0.00145158
0.0133368
0.00137639
0.0129793
0.00133863
0.0126096
0.00141444
0.0122233
0.00155467
0.0118199
0.00172393
0.0114472
0.0016731
0.0111417
0.00138863
0.0109447
0.000843755
0.0108123
0.000470118
0.0107031
0.000339466
0.0105617
0.000528352
0.0104024
0.000725244
0.0102438
0.000837676
0.0101519
0.000645775
0.0101444
0.000374199
0.0103014
-0.000300959
0.0106765
-0.00132258
0.011267
-0.00239824
0.0120113
-0.00316979
0.0128373
-0.00360431
0.0137354
-0.0039306
0.0146652
-0.00407735
0.0157064
-0.00451398
0.0168437
-0.00498811
0.0181513
-0.00577588
0.0195
-0.00613163
0.0208386
-0.00606872
0.021965
-0.00502422
0.0229023
-0.00363503
0.0237198
-0.00257652
0.0247155
-0.0026069
0.02613
-0.00416435
0.0283198
-0.0072693
0.0313988
-0.0114734
0.0355727
-0.0165966
0.0404859
-0.0203227
0.0462102
-0.0243329
0.0521848
-0.0255878
0.0586928
-0.0280776
0.0651366
-0.0276723
0.0720153
-0.0295728
0.0784572
-0.0273515
0.0854979
-0.0301364
0.0919715
-0.0270785
0.0995658
-0.032874
0.106828
-0.0303034
0.115606
-0.0406273
-0.0487833
0.0743794
0.010116
-0.0739964
0.0748036
0.0105398
0.0752579
0.010951
0.0757217
0.0113283
0.076169
0.0116565
0.0765754
0.0119239
0.0769209
0.012126
0.0771911
0.0122645
0.0773756
0.0123447
0.0774668
0.012374
0.0774592
0.0123601
0.0773475
0.01231
0.0771273
0.0122291
0.0767946
0.012122
0.0763463
0.0119918
0.0757805
0.0118409
0.0750967
0.0116707
0.0742967
0.0114822
0.0733845
0.0112763
0.0723658
0.0110541
0.0712488
0.0108167
0.070043
0.0105657
0.068759
0.0103028
0.0674083
0.01003
0.0660025
0.00974936
0.0645533
0.00946302
0.0630717
0.00917308
0.0615683
0.00888158
0.0600524
0.00859043
0.0585328
0.00830131
0.057017
0.0080157
0.0555114
0.00773483
0.0540217
0.00745973
0.0525525
0.00719124
0.0511078
0.00693002
0.0496905
0.00667657
0.0483032
0.00643125
0.0469476
0.00619433
0.0456253
0.00596593
0.0443371
0.00574615
0.0430836
0.00553496
0.041865
0.00533239
0.0406812
0.00513831
0.039532
0.0049527
0.0384169
0.00477538
0.0373352
0.00460633
0.0362861
0.00444543
0.0352686
0.00429271
0.0342816
0.00414812
0.0333239
0.00401171
0.032394
0.00388344
0.0314906
0.00376318
0.0306121
0.00365093
0.0297572
0.00354624
0.0289242
0.00344925
0.0281117
0.0033591
0.0273183
0.00327617
0.0265427
0.00319899
0.0257838
0.00312824
0.0250409
0.00306146
0.0243131
0.00299963
0.0236008
0.00293862
0.0229039
0.00288014
0.0222239
0.00281715
0.0215616
0.00275302
0.0209202
0.00267508
0.0203008
0.00259081
0.0197087
0.00247966
0.0191436
0.00236219
0.0186108
0.00221351
0.0181054
0.00207748
0.0176291
0.00192793
0.017169
0.00183641
0.0167201
0.00178754
0.016261
0.00187359
0.0157903
0.00202536
0.0153083
0.00220594
0.014868
0.00211337
0.0145048
0.00175177
0.0142623
0.00108629
0.0140899
0.000642539
0.0139453
0.00048405
0.0137702
0.000703445
0.0135853
0.000910166
0.0134119
0.00101102
0.013327
0.000730737
0.0133493
0.000351861
0.013565
-0.000516592
0.0140282
-0.00178586
0.01473
-0.00309999
0.015602
-0.00404185
0.0165603
-0.00456255
0.0175997
-0.00497004
0.0186708
-0.00514844
0.0198727
-0.00571584
0.0211793
-0.00629475
0.022687
-0.00728358
0.0242381
-0.00768263
0.0257949
-0.0076256
0.0271202
-0.00634951
0.028275
-0.00478981
0.0293184
-0.00361992
0.0306182
-0.0039067
0.0323995
-0.00594565
0.0350906
-0.00996038
0.0387836
-0.0151664
0.0437382
-0.0215513
0.0495438
-0.0261282
0.0562839
-0.0310731
0.0633235
-0.0326274
0.0709885
-0.0357425
0.0786147
-0.0352986
0.0867531
-0.0377111
0.0944367
-0.0350351
0.102751
-0.0384506
0.110491
-0.0348189
0.11937
-0.0417524
0.128026
-0.0389592
0.138113
-0.0507151
-0.060323
0.0795912
0.00976798
-0.0792431
0.0799708
0.0101602
0.0803751
0.0105466
0.0807914
0.0109121
0.0812025
0.0112453
0.0815904