/*--------------------------------*- C++ -*----------------------------------*\
| =========                 |                                                 |
| \\      /  F ield         | OpenFOAM: The Open Source CFD Toolbox           |
|  \\    /   O peration     | Version:  2412                                  |
|   \\  /    A nd           | Website:  www.openfoam.com                      |
|    \\/     M anipulation  |                                                 |
\*---------------------------------------------------------------------------*/
FoamFile
{
    version     2.0;
    format      ascii;
    arch        "LSB;label=32;scalar=64";
    class       volVectorField;
    location    "1.145";
    object      ddt0(U);
}
// * * * * * * * * * * * * * * * * * * * * * * * * * * * * * * * * * * * * * //

dimensions      [0 1 -2 0 0 0 0];

internalField   nonuniform List<vector> 
12600
(
(54.3002 0 -93.3488)
(-43.6977 4.08545e-17 -18.783)
(30.5869 1.63999e-17 -1.48798)
(64.75 0 8.13987)
(91.8741 -4.71345e-18 20.3044)
(111.008 0 28.2768)
(113.44 9.86156e-17 27.0224)
(97.3566 0 17.0526)
(67.3306 0 2.21907)
(33.9049 0 -10.513)
(5.80631 0 -18.6965)
(-11.5593 1.6299e-16 -20.799)
(-16.5201 4.53941e-17 -16.7972)
(-14.0833 0 -10.0376)
(-16.722 8.27658e-17 -8.20869)
(-38.5911 0 -17.8145)
(-80.2407 -6.4534e-18 -38.086)
(-126.249 0 -59.2548)
(-156.456 2.45639e-16 -70.2745)
(-146.244 0 -59.2046)
(-104.752 0 -34.5424)
(-70.9242 0 -8.00543)
(-23.9922 1.47869e-15 31.9846)
(-43.5663 -1.14559e-16 0.453596)
(3.09027 1.43178e-16 -7.13139)
(-23.5363 -6.80035e-16 -96.5969)
(-155.228 0 -130.67)
(-129.489 0 -57.7239)
(1.38958 0 17.8943)
(62.6147 -1.24209e-15 36.5128)
(78.6498 -1.94147e-15 37.8147)
(86.4752 0 39.3878)
(91.1918 0 38.7781)
(98.871 -2.37134e-16 38.8459)
(101.959 1.1162e-16 36.9672)
(95.7381 0 32.9268)
(86.7227 0 29.5121)
(74.8411 1.73923e-15 24.4945)
(58.0594 0 17.314)
(40.4263 1.90482e-17 10.4708)
(24.8768 2.31137e-15 4.85442)
(11.0211 2.36874e-15 0.0549451)
(-2.81038 0 -4.91994)
(-17.5052 2.28492e-15 -10.6488)
(-30.4628 2.09871e-15 -14.9566)
(-39.2426 -3.72648e-15 -17.0701)
(-43.5467 3.24709e-15 -17.3718)
(-44.6366 0 -16.6443)
(-43.5898 -2.29332e-15 -15.5933)
(-41.1991 1.84859e-15 -14.5545)
(-37.4197 0 -13.6633)
(-32.979 1.0997e-17 -13.1597)
(-26.6186 -7.95229e-16 -11.6959)
(-20.0691 0 -10.1074)
(-15.59 9.31876e-16 -6.86131)
(-9.97911 0 -2.82893)
(-4.68782 0 0.482535)
(6.39252 -8.42808e-18 6.92402)
(14.9288 7.3441e-18 8.21278)
(17.0002 -1.0927e-15 7.39928)
(17.4144 1.37719e-15 4.23711)
(17.4772 -3.28648e-15 2.72529)
(16.8202 0 1.65753)
(15.3746 -4.02572e-15 0.774686)
(13.6357 -4.22546e-15 0.397415)
(12.466 8.71281e-15 1.12011)
(10.8426 -4.4171e-15 1.73077)
(8.70102 0 2.26593)
(6.59949 0 3.89936)
(1.23185 0 1.10333)
(-3.14965 0 0.775589)
(-6.65501 0 0.0444164)
(-9.43867 3.76313e-15 -0.895353)
(-9.72228 -2.22968e-15 -1.6714)
(-8.99271 0 -4.29988)
(-11.1029 0 -10.5339)
(-8.29726 1.15239e-15 -8.06565)
(-4.42287 2.49815e-17 -8.12849)
(-1.7774 5.56092e-15 -7.99582)
(1.94075 0 -6.63894)
(5.05511 0 -5.32165)
(5.94934 0 -4.41685)
(7.5063 8.33822e-19 -2.41397)
(6.63137 0 -1.34001)
(5.58433 0 -0.9021)
(2.03757 6.87454e-15 -1.07099)
(2.28021 8.99416e-19 0.610807)
(0.355653 0 0.833809)
(0.779653 0 0.67081)
(1.31719 -8.02764e-15 0.757761)
(-2.0924 -5.61517e-15 1.14576)
(3.70549 -5.1441e-15 -1.73327)
(11.3812 -3.54792e-15 0.347734)
(6.29551 3.39502e-18 -2.13968)
(-12.3105 -2.75446e-18 7.27771)
(-30.595 1.55376e-15 20.4242)
(-30.738 0 18.6789)
(-106.853 0 61.1443)
(6.49593 0 -1.69131)
(58.3884 -2.421e-14 -32.8195)
(17.9277 3.54462e-15 -9.89874)
(11.1806 -3.36957e-15 -6.53333)
(4.88067 -1.37781e-15 -2.72786)
(6.6687 0 -3.93313)
(0.173586 0 -0.112342)
(-6.76859 0 4.10059)
(7.61574 -4.8588e-16 -6.55255)
(-0.304731 0 -0.229534)
(-5.95801 -3.38637e-15 2.34164)
(0.252751 0 -3.37408)
(13.8401 0 -10.3233)
(25.7267 1.32374e-14 -15.9223)
(29.474 0 -17.4176)
(25.1852 0 -14.9426)
(21.1409 0 -12.9028)
(34.7685 -2.96841e-14 -19.931)
(38.2394 0 -22.0515)
(8.25117 3.22555e-14 -5.54047)
(-14.6639 0 7.76369)
(-7.56518 6.75584e-19 4.39418)
(6.10693 -1.36635e-17 -156.825)
(-18.4408 -2.85241e-17 -41.4214)
(32.4878 -4.49446e-18 -2.61381)
(73.5979 0 12.5912)
(104.011 4.0923e-17 27.4397)
(118.76 -8.25396e-17 37.0382)
(113.626 -1.02873e-16 35.7946)
(91.5619 1.24587e-16 24.1518)
(60.1861 0 6.64994)
(28.7578 0 -9.40022)
(3.22273 0 -21.3438)
(-11.1263 0 -26.408)
(-13.6156 0 -23.4277)
(-12.5714 0 -16.3613)
(-22.477 -3.68985e-17 -14.8661)
(-56.4207 0 -29.7307)
(-109.18 -1.18511e-16 -60.6934)
(-158.749 0 -92.6842)
(-182.836 -6.28311e-16 -111.47)
(-159.787 1.20146e-15 -98.3471)
(-106.806 0 -63.1252)
(-59.7333 7.79853e-16 -22.2672)
(-7.77484 -6.66401e-16 58.4605)
(-65.9393 5.38413e-17 -11.7253)
(-42.7473 3.81952e-17 -33.2329)
(-146.095 0 -246.724)
(-237.615 8.61132e-16 -285.834)
(-117.113 0 -96.3156)
(34.2619 0 37.5335)
(83.775 0 65.5987)
(94.6581 9.96151e-16 64.4069)
(100.223 0 62.9373)
(104.618 0 61.2321)
(111.89 0 59.7106)
(113.112 0 55.2665)
(105.059 0 48.5805)
(94.3796 0 43.0042)
(80.0587 -1.78946e-15 35.1056)
(60.929 0 24.489)
(41.7452 -4.52127e-15 14.644)
(25.1204 -4.7668e-15 6.68047)
(10.2219 -2.45852e-15 -0.0311156)
(-4.84047 0 -6.79539)
(-20.4963 0 -14.1947)
(-33.7734 -4.28047e-15 -19.7149)
(-42.4454 3.80498e-15 -22.3806)
(-46.4704 -3.2741e-15 -22.7044)
(-47.3238 0 -21.7537)
(-46.1742 2.29831e-15 -20.5053)
(-43.7423 0 -19.3587)
(-39.9722 0 -18.481)
(-35.5069 1.08895e-15 -18.1857)
(-29.3875 0 -17.4675)
(-21.8526 0 -14.8466)
(-17.3935 -9.41523e-16 -12.2035)
(-10.8767 0 -6.47106)
(-4.05917 0 -0.758745)
(13.6661 -2.27351e-17 17.5215)
(16.9784 -8.35433e-16 10.787)
(17.8864 -1.57502e-17 8.72738)
(17.9434 0 5.1283)
(17.8826 3.29835e-15 3.32159)
(16.9082 3.71528e-15 2.07222)
(15.0697 0 1.1039)
(13.123 8.4222e-15 1.0812)
(11.5476 1.74211e-18 2.17798)
(9.28629 0 3.22879)
(6.50253 -4.32515e-15 4.19553)
(3.52314 0 6.40698)
(-2.92065 0 3.46262)
(-7.774 0 3.17291)
(-11.5832 0 2.21081)
(-14.087 -7.38494e-15 0.793364)
(-13.1445 2.14613e-15 -0.833018)
(-11.2036 0 -6.25013)
(-14.991 0 -23.3417)
(-3.68654 1.21375e-15 -15.0724)
(4.66884 3.4939e-17 -15.6731)
(10.616 3.3873e-17 -16.5085)
(15.7761 0 -15.4995)
(18.8326 0 -13.7163)
(17.8503 0 -11.5144)
(16.257 2.0086e-18 -7.19478)
(11.9965 -7.45408e-15 -4.26739)
(8.05998 6.74183e-15 -2.20449)
(1.12337 -6.64224e-15 -1.47766)
(-0.415138 2.42947e-18 2.23139)
(-2.7617 -5.35947e-15 2.75568)
(-2.01047 0 2.25397)
(-1.70462 7.71596e-15 2.5572)
(-7.40999 0 4.04359)
(8.52835 4.93228e-15 -5.08812)
(31.7031 0 -1.96121)
(15.8558 -5.48374e-15 -7.0993)
(-37.5262 -3.8014e-15 23.4899)
(-101.409 0 62.0637)
(-100.506 0 62.4196)
(-332.288 1.5151e-15 191.339)
(11.1397 -8.73785e-15 -9.77727)
(171.827 2.30061e-14 -99.9228)
(61.3918 -3.36643e-15 -33.4558)
(36.6324 3.19733e-15 -21.1881)
(15.3207 0 -8.43453)
(21.2793 -7.95698e-16 -12.3277)
(-6.12424 0 3.47297)
(-20.7243 0 12.0682)
(25.5945 3.27701e-16 -17.7737)
(-0.408572 0 0.190784)
(-12.297 -1.11987e-17 6.02871)
(10.2628 6.06048e-15 -9.92768)
(53.1007 0 -33.9074)
(85.1225 0 -50.7862)
(90.3205 0 -53.1115)
(75.4575 1.54353e-14 -44.3412)
(59.9882 -2.86295e-14 -36.0555)
(95.8622 2.79059e-14 -56.8195)
(110.351 0 -63.9727)
(31.606 -3.02961e-14 -17.5667)
(-39.4205 0 22.9604)
(-23.8546 5.45019e-14 13.7377)
(32.0735 2.40672e-17 -87.6983)
(18.0525 -8.3539e-18 -27.7599)
(44.6378 -1.45265e-17 0.2086)
(74.1344 0 8.70132)
(95.9499 5.34426e-17 12.7595)
(104.217 -3.50117e-18 14.0586)
(97.2776 0 12.6378)
(78.825 -1.1825e-16 9.34872)
(54.7431 0 5.43059)
(29.794 -1.19611e-16 1.06721)
(8.81837 0 -3.6498)
(-3.2607 0 -7.46241)
(-6.75041 0 -9.26561)
(-9.91918 0 -10.3745)
(-24.5334 5.44901e-18 -13.1966)
(-59.4602 0 -22.5813)
(-103.984 0 -35.7275)
(-139.816 0 -46.3305)
(-150.479 3.5367e-16 -50.4431)
(-125.595 -1.15834e-18 -45.6835)
(-83.7351 0 -36.9833)
(-45.255 -2.05117e-16 -27.6668)
(-35.077 0 9.57321)
(-95.8092 -2.92128e-16 -34.8794)
(-99.1188 0 -60.6817)
(-201.323 0 -277.14)
(-196.852 -8.16808e-16 -265.894)
(-38.841 0 -39.7424)
(52.0929 0 39.1383)
(76.0988 -9.55067e-16 49.9681)
(81.6612 0 44.8799)
(84.4848 0 38.1152)
(89.2763 0 36.5064)
(95.4604 0 33.54)
(96.3718 -2.09043e-16 28.7793)
(89.6861 0 24.2203)
(80.1194 0 20.597)
(67.3065 1.75179e-15 15.6601)
(51.096 0 10.0578)
(35.1286 4.31302e-15 5.36338)
(21.275 -5.57082e-18 1.78848)
(8.72274 2.3276e-15 -1.10448)
(-3.93657 0 -3.86148)
(-16.6497 0 -6.39171)
(-27.6162 2.02062e-15 -8.2531)
(-35.0368 0 -9.1022)
(-38.7392 3.09716e-15 -9.11078)
(-39.8545 0 -8.72529)
(-39.2097 -9.34636e-18 -8.38479)
(-37.3133 0 -8.17991)
(-34.0242 0 -8.13546)
(-29.9132 0 -8.37523)
(-24.7755 7.29822e-16 -9.67916)
(-19.8044 0 -11.6447)
(-16.5304 0 -11.2653)
(-10.4335 0 -6.87508)
(-3.51857 0 -2.74473)
(16.2814 -1.25519e-15 20.9062)
(12.1732 0 3.52676)
(13.9504 -4.39153e-18 1.89977)
(15.7313 0 1.4032)
(16.3305 -1.5577e-15 1.08003)
(15.7103 -3.50296e-15 0.933204)
(14.0962 0 0.936685)
(12.1124 -7.93802e-15 1.61048)
(9.76019 -4.08652e-15 2.41414)
(6.665 0 3.38829)
(3.00934 4.07323e-15 4.35957)
(-1.52615 0 5.4974)
(-6.97674 0 5.65073)
(-12.0255 0 5.86744)
(-15.4825 0 5.48137)
(-16.9953 9.60335e-18 4.44979)
(-14.3385 -2.01825e-15 2.37016)
(-9.39535 0 -2.73546)
(-7.73934 0 -19.1032)
(6.86437 2.50771e-17 -14.3967)
(17.978 -3.9237e-15 -17.1294)
(25.7978 -2.59265e-15 -19.7286)
(30.6738 0 -20.5955)
(32.2763 0 -19.4254)
(28.7129 0 -16.0669)
(23.0891 -1.54661e-14 -10.6381)
(15.3774 -9.31505e-19 -6.24703)
(9.18358 -6.32438e-15 -2.41301)
(0.38087 0 0.441635)
(-3.42062 -5.70193e-15 4.13442)
(-5.98538 5.0245e-15 4.61459)
(-4.85134 0 3.89349)
(-5.22607 0 4.60795)
(-13.2428 5.02892e-15 7.24309)
(11.624 0 -7.59503)
(44.8364 3.01061e-15 -10.6498)
(23.1262 9.52888e-19 -10.3154)
(-60.0381 3.55943e-15 39.6514)
(-168.929 -1.2998e-15 100.662)
(-170.245 0 107.592)
(-518.075 -1.41791e-15 293.878)
(-9.01371 8.17611e-15 -12.5205)
(267.447 -2.15316e-14 -154.655)
(110.06 0 -58.1623)
(63.4969 2.97384e-15 -35.69)
(25.8121 0 -13.6329)
(34.6234 7.44035e-16 -19.2722)
(-16.8541 1.09593e-15 11.4713)
(-32.4436 0 17.7388)
(41.5136 -3.06319e-16 -25.7489)
(-0.233761 0 1.29398)
(-14.4458 5.99979e-15 6.74341)
(25.9967 -5.6633e-15 -18.6796)
(95.417 0 -59.5379)
(142.133 0 -83.5803)
(143.583 0 -82.6986)
(116.514 1.54348e-18 -66.3109)
(89.7466 2.67422e-14 -52.9078)
(142.031 -2.6066e-14 -82.778)
(166.965 0 -93.7592)
(54.4416 -2.83035e-14 -27.7326)
(-58.05 0 34.3333)
(-38.1504 -3.21615e-18 21.5913)
(55.6604 -1.05242e-17 -37.4559)
(46.8742 6.27803e-18 -11.3714)
(60.9557 2.46158e-18 3.63532)
(81.8692 3.17399e-17 9.30254)
(97.0241 6.49674e-17 11.4079)
(100.607 1.58412e-16 10.4757)
(91.4155 0 7.41677)
(72.7573 0 3.85019)
(49.5409 0 0.930858)
(26.1696 1.13299e-16 -1.16635)
(7.59862 0 -2.22941)
(-2.32342 0 -2.73169)
(-5.58843 0 -3.83196)
(-11.0282 0 -7.54153)
(-29.2935 0 -14.6315)
(-64.1117 7.76133e-17 -24.0143)
(-101.212 -3.51278e-17 -27.6954)
(-125.624 0 -22.9566)
(-125.229 0 -9.67978)
(-100.055 -1.07892e-15 -0.890714)
(-69.5225 8.66542e-16 -7.1772)
(-46.6063 -5.06602e-16 -24.0466)
(-71.1487 2.34665e-16 -46.576)
(-109.997 2.76624e-16 -48.4402)
(-127.239 -1.10336e-15 -52.2574)
(-148.135 1.50362e-15 -142.654)
(-83.2627 0 -131.108)
(37.8792 -8.38408e-16 29.5094)
(62.3953 0 46.9061)
(69.7575 9.03928e-16 39.8612)
(73.9073 0 34.507)
(76.7353 0 26.7491)
(82.4446 0 25.627)
(88.4978 -9.8195e-17 23.0208)
(89.6907 1.97746e-16 18.8884)
(83.5717 0 14.9931)
(74.3921 0 12.0621)
(61.9313 -1.65652e-15 7.95963)
(46.6565 0 3.83098)
(31.8103 8.80372e-20 0.745886)
(18.9123 2.14891e-15 -1.42281)
(7.10286 0 -3.13244)
(-4.91361 0 -4.8329)
(-16.9754 0 -6.35829)
(-27.3665 0 -7.42132)
(-34.3875 3.35691e-15 -7.79412)
(-37.8797 0 -7.59026)
(-38.9166 -2.46254e-15 -7.13112)
(-38.2328 -2.04302e-15 -6.73669)
(-36.2851 0 -6.45668)
(-32.9004 0 -6.26052)
(-28.6755 0 -6.22883)
(-23.4708 -6.88556e-16 -6.8663)
(-19.9403 5.01859e-16 -11.7364)
(-15.8347 7.46369e-16 -11.1169)
(-9.04312 0 -5.67624)
(-2.01377 5.26408e-16 -2.974)
(12.2399 1.16438e-15 13.0912)
(10.0015 0 1.27818)
(13.3163 1.98819e-15 0.931796)
(15.2683 0 0.998869)
(15.8403 1.46843e-15 1.04502)
(15.0991 3.29837e-15 1.22939)
(13.2991 0 1.55318)
(10.8986 3.73592e-15 2.29711)
(8.05462 3.84492e-15 3.26922)
(4.36116 0 4.49039)
(0.0578567 0 5.73858)
(-5.2244 0 6.9732)
(-10.9115 -3.34651e-15 7.82389)
(-16.1771 -2.85857e-15 8.27534)
(-19.423 0 7.94543)
(-20.1548 3.24331e-15 6.61246)
(-15.8092 1.88514e-15 3.57326)
(-7.60585 0 -1.67376)
(2.36775 0 -11.6716)
(16.0604 -1.0945e-15 -16.7668)
(29.3097 -5.67413e-18 -22.2354)
(38.448 0 -26.1978)
(43.3059 0 -27.1891)
(43.4934 0 -25.3374)
(37.276 0 -20.235)
(28.0421 -2.75085e-18 -12.9646)
(17.2357 6.55854e-15 -6.94505)
(9.09337 0 -1.93408)
(-1.02386 0 2.59321)
(-6.53945 0 6.14793)
(-9.14977 4.70733e-15 6.37788)
(-7.78343 0 5.64121)
(-9.42477 6.77402e-15 7.12457)
(-19.7581 -4.70932e-15 10.6331)
(12.9418 4.30325e-15 -9.75784)
(51.8819 -2.8184e-15 -24.0042)
(27.7044 4.80647e-15 -10.5887)
(-80.0204 -3.3312e-15 56.513)
(-229.846 1.21627e-15 139.341)
(-238.345 0 153.936)
(-617.938 0 348.438)
(-91.0401 7.64819e-15 16.0211)
(336.274 1.00731e-14 -198.053)
(161.909 2.94049e-15 -83.3072)
(92.3187 -8.70438e-18 -50.7777)
(36.6653 0 -18.8565)
(45.8797 0 -24.7179)
(-30.9934 -1.02438e-15 21.0854)
(-41.713 0 21.818)
(53.4129 2.60168e-16 -33.21)
(0.327417 0 2.22878)
(-11.9567 3.63709e-18 4.9193)
(46.3425 0 -32.2638)
(139.767 -9.15893e-15 -87.5175)
(194.568 1.09122e-14 -114.612)
(186.183 1.16674e-14 -106.967)
(145.767 5.59098e-19 -82.231)
(110.554 0 -65.2363)
(173.881 2.43425e-14 -103.37)
(205.22 2.63385e-14 -114.509)
(73.8339 2.64289e-14 -34.7677)
(-70.1837 0 43.2313)
(-49.454 -4.50616e-18 27.8282)
(68.5349 0 -10.9182)
(65.5419 7.38289e-18 -0.671776)
(75.5413 0 7.00272)
(89.5231 -2.99882e-17 9.91314)
(98.2521 -1.09154e-16 10.3026)
(97.6604 -7.6496e-17 8.45063)
(86.746 0 5.09038)
(68.1121 0 1.51777)
(45.8118 1.0564e-16 -1.27104)
(24.0204 9.64498e-17 -2.54767)
(7.19844 -6.78493e-17 -1.93102)
(-1.84948 -5.04255e-17 -0.576948)
(-6.14533 1.94585e-17 -1.00674)
(-14.2634 0 -5.76223)
(-35.1437 0 -15.2367)
(-68.6414 -1.20445e-16 -25.4008)
(-100.111 3.05757e-17 -27.1728)
(-116.487 0 -16.5915)
(-111.231 -3.12344e-16 4.36321)
(-89.2876 -8.25448e-16 17.8648)
(-67.479 -8.19246e-16 8.66452)
(-54.9362 0 -17.2688)
(-84.8466 -2.21843e-16 -60.0447)
(-109.614 6.62413e-16 -54.5686)
(-114.067 1.0429e-15 -34.6099)
(-71.5604 -2.28916e-17 -6.99521)
(8.2666 0 4.29381)
(65.4805 1.52468e-16 52.4504)
(73.8012 0 73.1446)
(68.6398 7.74762e-16 43.7253)
(70.8468 0 32.5826)
(73.8321 0 24.0057)
(79.647 0 21.6936)
(85.3135 9.27454e-17 18.9036)
(86.6488 0 15.2336)
(80.537 0 11.0854)
(71.3209 0 8.05952)
(58.7607 0 3.92123)
(43.8318 1.78116e-15 0.114941)
(29.4935 -3.85081e-15 -2.47406)
(17.0347 0 -4.1241)
(5.5492 -2.07419e-15 -5.35566)
(-6.17935 0 -6.59808)
(-17.9123 0 -7.66407)
(-27.93 0 -8.25387)
(-34.611 -1.3304e-17 -8.2124)
(-37.8594 0 -7.69507)
(-38.7449 2.32192e-15 -7.00058)
(-37.9502 0 -6.40071)
(-35.9 0 -5.93503)
(-32.4128 1.17603e-15 -5.55919)
(-28.088 0 -5.32874)
(-22.7217 0 -5.28527)
(-17.8963 -7.11709e-18 -7.85381)
(-14.8873 -7.02991e-16 -10.1209)
(-7.73423 0 -4.29895)
(-1.21535 -1.65905e-18 -2.70499)
(6.72999 -1.1035e-15 3.15506)
(9.20987 0 0.561002)
(12.955 -9.36512e-16 0.759958)
(14.856 0 1.10255)
(15.2715 -1.38142e-15 1.34413)
(14.327 -3.10239e-15 1.74001)
(12.2833 0 2.30219)
(9.52877 -3.50973e-15 3.22066)
(6.25539 -1.88671e-18 4.41137)
(2.0377 0 5.89295)
(-2.82827 0 7.40607)
(-8.67363 0 8.85102)
(-14.7223 6.28374e-15 9.94604)
(-20.1543 4.01496e-18 10.481)
(-23.1609 0 10.028)
(-23.0931 -3.03446e-15 8.18834)
(-17.0301 -3.53733e-15 4.00745)
(-6.09353 0 -2.60198)
(8.60312 0 -12.0413)
(24.3526 0 -20.9207)
(39.7903 -1.50859e-18 -28.0002)
(49.8557 0 -32.6095)
(54.3834 0 -33.0765)
(52.859 0 -30.0857)
(43.91 0 -23.072)
(31.1884 6.8001e-15 -14.0968)
(17.7246 6.15219e-15 -6.44718)
(8.05589 0 -0.717623)
(-3.12251 0 4.45283)
(-9.59294 0 8.14923)
(-12.179 4.01062e-19 8.04237)
(-10.952 0 7.54924)
(-14.5201 -6.34142e-15 10.2612)
(-26.9772 0 14.2533)
(13.0043 -4.0273e-15 -11.6834)
(57.9479 0 -33.4935)
(28.4768 -2.24802e-15 -7.59885)
(-99.2262 0 74.3967)
(-283.794 0 174.082)
(-299.766 0 197.306)
(-579.622 0 323.637)
(-286.506 -7.15161e-15 105.048)
(369.127 0 -223.643)
(213.071 -2.74885e-15 -107.075)
(123.827 -2.59095e-15 -66.4423)
(48.6994 0 -24.1179)
(54.9928 0 -28.3138)
(-45.8366 0 32.0778)
(-49.4036 0 24.2078)
(61.8997 -3.8826e-18 -38.9117)
(1.71245 0 3.05197)
(-5.42594 -5.25071e-15 -0.391056)
(71.6738 0 -50.1154)
(185.572 1.71152e-14 -116.551)
(241.036 -1.01916e-14 -141.921)
(217.171 -1.08963e-14 -123.277)
(163.701 -1.25783e-14 -90.4266)
(123.93 0 -73.7506)
(196.063 0 -117.279)
(226.973 -4.9185e-14 -124.057)
(87.8488 2.46746e-14 -37.6282)
(-77.1166 2.38966e-14 49.3343)
(-57.6575 -2.21706e-14 32.1349)
(74.5067 0 3.81441)
(77.0996 -1.84889e-17 7.13769)
(85.0192 0 10.2237)
(93.9959 0 10.6472)
(98.3184 0 9.43858)
(94.8899 0 6.92847)
(83.0294 0 3.9354)
(64.9212 -9.38039e-17 1.22066)
(43.9644 -9.96788e-17 -0.775512)
(23.852 -1.76394e-16 -1.39888)
(8.24216 1.24175e-16 -0.228591)
(-1.02333 4.75943e-17 1.57435)
(-7.27734 -1.83666e-17 1.25782)
(-18.009 0 -3.4731)
(-39.9419 0 -12.6875)
(-70.3979 6.17121e-17 -21.6978)
(-95.8023 -2.1628e-17 -22.5085)
(-106.025 0 -10.9324)
(-100.032 2.9484e-16 10.416)
(-84.7157 7.79167e-16 24.8076)
(-71.2738 0 16.6445)
(-66.2515 5.93069e-16 -9.56266)
(-90.9728 0 -54.1229)
(-105.146 1.58908e-16 -54.301)
(-98.4126 -1.05897e-15 -30.0557)
(-42.5175 -1.11446e-16 18.7071)
(39.6983 0 51.5832)
(63.4424 6.03713e-16 37.5871)
(69.8975 -7.939e-16 64.5923)
(70.2953 -1.44193e-15 62.5884)
(70.2722 -6.84869e-16 38.5104)
(72.7852 0 25.5228)
(77.8988 -3.23111e-16 20.3777)
(82.9772 0 16.4741)
(84.6161 0 13.5524)
(78.4067 0 9.12273)
(69.0747 0 5.81418)
(56.3432 0 1.45429)
(41.6324 -5.89693e-18 -2.3602)
(27.6066 1.81308e-15 -4.86536)
(15.3955 0 -6.36166)
(4.05379 3.90248e-15 -7.43582)
(-7.54697 0 -8.50733)
(-19.0786 0 -9.35631)
(-28.8133 0 -9.64702)
(-35.2079 -2.96971e-15 -9.27949)
(-38.2414 0 -8.47733)
(-38.9908 0 -7.55031)
(-38.097 0 -6.74093)
(-35.9657 0 -6.10084)
(-32.4143 -2.20599e-15 -5.58473)
(-28.0453 0 -5.25959)
(-22.6182 0 -4.91338)
(-17.1107 -4.38141e-16 -5.83612)
(-14.4787 0 -9.60894)
(-6.88273 0 -3.51194)
(-0.752591 -9.27726e-16 -2.13787)
(4.90023 5.22599e-16 0.0633446)
(8.87368 0 0.613326)
(12.5821 0 0.99462)
(14.3407 0 1.49015)
(14.5568 1.29645e-15 1.86945)
(13.3877 0 2.43111)
(11.0894 0 3.19294)
(8.0147 6.59077e-15 4.30114)
(4.36057 -6.78301e-15 5.70334)
(-0.313096 0 7.42015)
(-5.66231 0 9.15587)
(-11.9785 0 10.7701)
(-18.3507 -2.94723e-15 11.9626)
(-23.8892 2.51567e-15 12.4785)
(-26.6255 3.97741e-15 11.7858)
(-25.752 2.84667e-15 9.31123)
(-17.9923 1.65812e-15 3.9043)
(-4.55731 -6.96482e-16 -4.40243)
(13.5529 0 -15.0941)
(31.977 0 -25.771)
(49.1738 1.63105e-15 -33.9254)
(59.7994 0 -38.5096)
(63.6249 0 -38.0291)
(60.1647 0 -33.6318)
(48.5789 0 -24.6573)
(32.6935 0 -14.0876)
(16.964 -1.15283e-14 -5.12836)
(6.26961 0 0.985804)
(-5.45358 -5.1206e-15 6.30582)
(-12.4171 0 10.0517)
(-15.0531 8.95273e-19 9.61733)
(-14.5147 8.60051e-15 9.75473)
(-20.7093 0 14.1466)
(-34.8556 0 18.0671)
(12.3997 0 -13.8119)
(63.8007 0 -38.1657)
(24.5196 2.099e-15 -0.913253)
(-119.465 0 94.8203)
(-326.901 0 204.494)
(-347.399 0 229.066)
(-366.474 0 203.875)
(-620.998 0 275.124)
(353.713 0 -230.322)
(258.166 0 -127.322)
(157.995 0 -82.7436)
(62.5878 1.00309e-15 -29.6427)
(61.9318 0 -30.0891)
(-59.4238 0 42.5508)
(-56.4423 0 25.688)
(66.9245 -2.23444e-16 -43.057)
(4.029 0 3.31083)
(5.63398 2.45332e-15 -7.96993)
(101.819 0 -71.6357)
(231.171 4.63758e-18 -146.214)
(279.244 0 -164.349)
(234.752 1.0178e-14 -131.747)
(170.446 0 -92.2689)
(131.606 0 -79.5387)
(210.073 0 -127.576)
(233.332 2.29599e-14 -125.362)
(96.0828 -4.60662e-14 -36.5572)
(-79.8506 -4.46106e-14 53.7416)
(-63.0196 -2.06831e-14 34.9085)
(77.1118 0 13.3899)
(82.5795 3.09915e-17 12.9181)
(89.0276 0 12.9774)
(95.5876 0 11.8776)
(97.6262 6.52583e-17 9.53487)
(92.6962 7.49316e-17 6.4935)
(80.5843 -8.17011e-17 3.866)
(63.2309 2.59688e-16 2.07739)
(43.6058 0 1.01432)
(24.8898 4.68152e-18 0.909618)
(9.92387 -5.66707e-17 2.02157)
(-0.201621 0 3.47739)
(-8.58948 0 3.05736)
(-21.2742 0 -0.792036)
(-42.873 0 -7.84868)
(-69.4027 -2.3063e-17 -14.1138)
(-89.1592 -2.02469e-17 -13.9294)
(-95.2766 1.19848e-16 -4.0424)
(-91.1006 2.10252e-16 13.3484)
(-83.5702 0 25.5683)
(-76.9907 -5.93033e-16 20.5492)
(-76.2439 -5.58982e-16 -0.576711)
(-90.2278 0 -35.1117)
(-91.9454 1.02321e-16 -37.6386)
(-76.0023 3.03314e-17 -13.6721)
(-23.7532 -1.13842e-15 26.5782)
(42.6154 0 53.9201)
(57.7743 0 33.6022)
(57.3835 7.48022e-16 30.6699)
(64.2063 4.54549e-18 50.2173)
(64.3073 1.27534e-15 41.7957)
(74.1049 0 34.6202)
(76.2562 5.96278e-16 20.8871)
(80.2515 0 13.8245)
(82.4362 0 11.6862)
(76.1654 4.07934e-16 7.31976)
(66.7317 0 3.74554)
(53.9378 1.38828e-15 -0.704348)
(39.5214 -8.85411e-18 -4.46996)
(25.8053 -1.69124e-15 -6.95578)
(13.8169 0 -8.38007)
(2.57687 -9.45966e-18 -9.38344)
(-8.93225 0 -10.3629)
(-20.2856 0 -11.0655)
(-29.7549 0 -11.1168)
(-35.8853 0 -10.466)
(-38.7274 0 -9.40325)
(-39.3604 -2.02456e-15 -8.25679)
(-38.3828 0 -7.24154)
(-36.1849 0 -6.42599)
(-32.5891 1.03335e-15 -5.77232)
(-28.1908 0 -5.36751)
(-22.7284 5.51147e-16 -4.84134)
(-17.1563 4.00043e-16 -5.08522)
(-14.6498 -5.76255e-16 -9.7969)
(-6.35025 0 -2.99676)
(-0.586381 4.3514e-16 -1.55193)
(4.14748 4.96436e-16 -0.744521)
(8.57778 0 0.957753)
(12.1027 0 1.44333)
(13.6882 0 2.04646)
(13.6995 -1.21729e-15 2.545)
(12.3143 0 3.25211)
(9.7779 0 4.19044)
(6.42355 -3.09151e-15 5.48041)
(2.44578 6.35886e-15 7.07373)
(-2.61132 0 8.99033)
(-8.36497 0 10.9011)
(-15.0778 0 12.6254)
(-21.7217 0 13.8226)
(-27.3102 2.3483e-15 14.2573)
(-29.7635 -3.72922e-15 13.245)
(-28.1147 0 10.0544)
(-18.7508 0 3.3839)
(-3.01763 6.52743e-16 -6.67045)
(17.9565 0 -18.9038)
(38.8915 -9.07355e-16 -30.6232)
(57.3799 1.52488e-15 -39.3368)
(68.0754 0 -43.5491)
(70.9041 0 -41.7937)
(65.4234 0 -35.849)
(51.4505 0 -24.984)
(33.0129 0 -12.7008)
(15.2712 5.398e-15 -3.13065)
(4.01671 0 3.02798)
(-7.71383 9.58893e-15 8.23878)
(-14.9284 0 11.8092)
(-17.8251 1.44782e-18 11.1637)
(-18.6725 -1.1738e-18 12.4262)
(-28.1379 0 18.8831)
(-43.2455 3.83425e-15 21.9475)
(11.7862 0 -16.4965)
(68.0682 0 -40.5651)
(15.3148 -3.92182e-15 9.69816)
(-142.854 0 118.381)
(-355.965 0 227.217)
(-375.743 0 241.557)
(-6.86811 0 9.83386)
(-1028.45 0 493.521)
(287.987 0 -220.641)
(291.412 0 -142.073)
(194.072 0 -99.3647)
(78.9757 -9.37127e-16 -35.4863)
(66.8546 0 -30.0809)
(-69.2599 0 51.4977)
(-64.2604 0 27.074)
(68.7241 2.0516e-16 -45.6683)
(7.67887 -3.3937e-15 2.84186)
(19.9215 -2.29604e-15 -19.5914)
(135.923 4.32234e-15 -96.4209)
(275.086 4.08449e-18 -175.032)
(307.331 -8.89383e-15 -180.061)
(239.271 -1.90066e-14 -131.643)
(168.516 0 -88.5497)
(136.359 2.03532e-14 -81.7938)
(217.62 1.98005e-14 -133.792)
(228.674 0 -119.577)
(100.02 2.1499e-14 -32.4933)
(-79.9919 2.08183e-14 56.9482)
(-66.3188 1.9306e-14 36.4854)
(77.0279 0 19.571)
(83.8427 -1.76677e-17 17.1183)
(90.0081 0 15.7622)
(95.4965 0 13.7836)
(96.4778 -6.1448e-17 10.7001)
(91.1196 -7.05416e-17 7.31236)
(79.2847 7.69006e-17 4.84122)
(62.7596 -2.39131e-16 3.59397)
(44.2543 0 3.13322)
(26.5166 -6.44755e-17 3.26777)
(11.7283 9.88793e-17 4.00736)
(0.492472 0 4.77775)
(-9.76436 -6.46548e-18 4.16436)
(-23.6526 0 1.48355)
(-44.1698 1.71043e-17 -2.77893)
(-67.0321 6.36882e-18 -5.87492)
(-82.5446 4.0457e-17 -4.78079)
(-86.4978 -1.12816e-16 2.36719)
(-84.996 -3.71819e-16 14.3704)
(-83.7272 0 23.6363)
(-81.3614 5.5824e-16 23.188)
(-81.3748 0 10.2837)
(-83.1336 0 -9.30096)
(-72.9922 -7.9189e-16 -10.711)
(-51.3206 1.76445e-15 9.97114)
(-6.42395 0 38.3829)
(42.2507 0 52.9367)
(53.1848 0 36.2584)
(50.6392 -6.70945e-16 23.0757)
(49.6367 6.26085e-16 20.7656)
(60.4073 -9.59748e-18 30.5182)
(71.007 4.52327e-16 34.7416)
(79.9444 -5.19625e-16 36.1466)
(78.1527 4.44778e-17 13.6235)
(80.0065 1.90365e-16 9.41647)
(73.7377 2.44972e-18 5.44245)
(64.126 0 1.51365)
(51.3824 -1.30569e-15 -2.92752)
(37.376 -1.47309e-15 -6.48747)
(24.0099 1.59038e-15 -8.91164)
(12.259 0 -10.2679)
(1.11534 -1.71481e-15 -11.2191)
(-10.3051 -1.68079e-15 -12.1281)
(-21.4755 -1.59354e-15 -12.7091)
(-30.6768 -1.45368e-15 -12.5489)
(-36.5554 0 -11.6436)
(-39.2266 0 -10.3407)
(-39.7633 1.49792e-17 -8.98894)
(-38.7188 0 -7.77478)
(-36.471 0 -6.7842)
(-32.8496 9.52352e-16 -5.99124)
(-28.4316 -7.09589e-16 -5.50372)
(-22.9516 -5.17625e-16 -4.83654)
(-17.7132 -6.13283e-18 -4.78556)
(-15.0358 1.72641e-17 -10.1235)
(-5.88585 0 -2.61166)
(-0.756658 0 -1.18118)
(3.74388 -9.32042e-16 -0.614057)
(8.228 0 1.45862)
(11.5133 0 2.03154)
(12.9179 9.65581e-16 2.71654)
(12.7365 0 3.32199)
(11.1606 0 4.158)
(8.42048 -2.76059e-15 5.25161)
(4.83679 2.89125e-15 6.7042)
(0.600185 -5.95472e-15 8.46077)
(-4.76479 0 10.5374)
(-10.8464 2.95451e-15 12.5772)
(-17.8903 0 14.359)
(-24.7416 0 15.5264)
(-30.3616 -4.39403e-15 15.8013)
(-32.5469 0 14.4132)
(-30.1987 0 10.4619)
(-19.3979 0 2.53093)
(-1.6423 0 -9.22831)
(21.8298 0 -22.8198)
(44.7673 8.49678e-16 -35.2986)
(64.0667 -3.6719e-18 -44.0959)
(74.4859 -1.87679e-15 -47.5705)
(76.1445 2.42065e-15 -44.3)
(68.7229 0 -36.7833)
(52.7755 0 -24.1847)
(31.7317 0 -11.3903)
(12.9274 0 -0.668224)
(1.53261 0 5.24538)
(-9.82865 5.55349e-18 10.0797)
(-17.122 0 13.4252)
(-20.6262 -3.61269e-15 12.7961)
(-23.6487 -1.99769e-18 15.7479)
(-36.8705 0 24.5174)
(-51.8806 -3.58493e-15 25.67)
(11.7107 0 -20.102)
(70.1311 2.11398e-15 -41.5541)
(1.19372 4.76216e-18 24.3251)
(-169.768 0 144.998)
(-367.359 0 240.143)
(-387.667 0 232.647)
(381.587 0 -188.935)
(-1307.58 -5.64115e-15 651.284)
(188.584 0 -205.045)
(308.789 0 -150.398)
(230.516 -2.0839e-15 -115.791)
(98.2643 0 -41.7908)
(70.0852 5.94956e-16 -28.325)
(-73.3713 7.65875e-16 57.6424)
(-74.4557 0 29.4148)
(67.5074 -3.8217e-16 -47.0226)
(12.8825 1.19396e-17 1.13993)
(38.8152 4.29108e-15 -32.3201)
(172.912 -4.0358e-15 -123.937)
(315.438 -6.97769e-15 -201.703)
(323.454 8.30349e-15 -188.063)
(232.309 8.87245e-15 -124.404)
(160.479 1.02262e-14 -81.4385)
(137.426 -1.90001e-14 -84.4099)
(218.944 -1.84836e-14 -136.488)
(217.979 -1.99937e-14 -110.477)
(102.189 -2.0048e-14 -27.2438)
(-78.5595 0 59.6585)
(-68.3449 0 37.4224)
(75.4965 0 23.9023)
(83.3281 -2.37594e-17 20.8876)
(89.6834 0 18.9354)
(94.4873 0 16.3558)
(95.1511 0 12.9356)
(89.98 0 9.3732)
(78.6949 -6.92594e-17 6.80497)
(62.9758 7.3255e-17 5.58115)
(45.3467 -6.9454e-17 5.19949)
(28.2407 1.27637e-16 5.21161)
(13.3847 -9.29509e-17 5.41273)
(1.1018 0 5.4093)
(-10.588 6.07788e-18 4.48293)
(-25.1072 0 2.68848)
(-44.3895 -1.60798e-17 0.806905)
(-64.4928 -3.30304e-17 0.43852)
(-77.4219 0 2.41504)
(-80.6083 0 7.16074)
(-81.3132 1.63506e-16 14.4773)
(-83.4444 0 21.4672)
(-82.794 0 25.4268)
(-81.1631 -6.05774e-16 21.3586)
(-73.216 0 15.1846)
(-54.8763 0 15.766)
(-31.8697 -8.02593e-16 29.8613)
(4.27422 0 47.2557)
(37.7739 0 49.033)
(45.7611 0 34.8225)
(44.9043 1.27135e-15 20.964)
(45.7202 0 15.1186)
(55.0298 -5.21874e-18 18.5569)
(67.6728 -1.54345e-17 20.8495)
(76.1469 2.30237e-16 33.4522)
(83.6209 -4.18017e-17 36.0197)
(78.8638 -3.65672e-16 10.8216)
(71.4344 -3.62888e-16 4.00731)
(61.3352 0 -0.699279)
(48.6476 0 -5.32238)
(35.1681 -1.35831e-15 -8.53173)
(22.1954 1.4682e-15 -10.8081)
(10.6997 0 -12.0803)
(-0.336345 0 -12.9638)
(-11.6561 1.58442e-17 -13.7957)
(-22.6264 1.49658e-15 -14.2598)
(-31.547 1.36512e-15 -13.9006)
(-37.1812 2.39247e-15 -12.7624)
(-39.6996 0 -11.2369)
(-40.1583 1.70592e-17 -9.6924)
(-39.0624 0 -8.2852)
(-36.7793 0 -7.11795)
(-33.1478 -8.93859e-16 -6.1775)
(-28.7131 6.65944e-16 -5.59113)
(-23.2221 0 -4.78808)
(-18.3743 -3.4674e-16 -4.50442)
(-13.614 1.33432e-17 -7.06798)
(-5.622 0 -2.34244)
(-1.34151 0 -1.30097)
(3.48615 8.73412e-16 -0.00105417)
(7.79207 0 2.06129)
(10.833 0 2.70927)
(12.0652 -1.80791e-15 3.45772)
(11.7178 0 4.15885)
(9.98957 0 5.10677)
(7.08921 5.16907e-15 6.32578)
(3.34074 -2.70977e-15 7.92503)
(-1.08794 2.78799e-15 9.80763)
(-6.68503 0 12.0036)
(-13.0232 -2.76814e-15 14.1308)
(-20.3397 0 15.9268)
(-27.3195 2.40077e-15 17.1019)
(-33.0076 2.05431e-15 17.0994)
(-34.9638 0 15.2993)
(-32.0375 0 10.5747)
(-20.0402 -1.35949e-15 1.42476)
(-0.598589 -5.81947e-16 -11.9406)
(24.9925 0 -26.5126)
(49.2639 0 -39.6823)
(69.0478 -2.66087e-15 -48.0078)
(78.9359 1.75628e-15 -50.4737)
(79.4041 -4.52832e-15 -45.5485)
(70.2876 0 -36.5493)
(52.7961 0 -22.4284)
(29.8551 0 -9.19953)
(10.3197 0 2.08366)
(-0.996887 0 7.5044)
(-11.7294 6.19425e-18 11.83)
(-19.0809 0 14.963)
(-23.6496 0 14.6782)
(-29.6489 -2.92001e-18 19.9006)
(-46.8623 0 31.0102)
(-60.386 -3.33849e-15 28.9174)
(12.6424 0 -24.8712)
(69.9309 -1.97567e-15 -40.5209)
(-16.8357 6.61999e-18 42.4861)
(-198.186 0 172.751)
(-359.17 0 241.683)
(-393.688 0 208.647)
(635.76 0 -305.263)
(-1218.02 1.16576e-16 612.796)
(85.3929 -7.13062e-15 -196.236)
(309.34 2.21697e-15 -152.891)
(265.296 1.9463e-15 -131.42)
(120.697 0 -48.4833)
(72.0145 -5.55618e-16 -25.0634)
(-70.3426 -7.15204e-16 60.3885)
(-88.5411 0 33.7813)
(63.5072 1.77952e-16 -47.4434)
(20.3583 5.88015e-15 -2.19424)
(59.5852 -2.00468e-15 -50.4544)
(211.339 0 -153.056)
(350.269 6.5223e-15 -224.829)
(326.857 0 -187.413)
(218.092 0 -112.192)
(149.481 -9.54592e-15 -72.609)
(136.521 0 -84.605)
(214.355 0 -135.633)
(207.622 1.86621e-14 -101.327)
(104.969 1.87121e-14 -22.1331)
(-75.6874 1.8105e-14 61.8674)
(-69.858 -1.67882e-14 38.11)
(73.6393 0 27.6258)
(82.2227 2.23303e-17 24.743)
(88.8655 4.9293e-17 22.5595)
(93.1744 0 19.672)
(93.7443 0 16.13)
(88.8873 0 12.4241)
(78.2181 6.50805e-17 9.52742)
(63.2328 0 7.87202)
(46.259 6.52472e-17 7.08092)
(29.5341 0 6.63498)
(14.5418 0 6.19891)
(1.48463 -5.41169e-17 5.44807)
(-11.1172 0 4.08526)
(-25.8179 4.90687e-18 2.63009)
(-43.9628 -2.08418e-17 2.18593)
(-62.2534 3.10204e-17 3.69094)
(-73.9488 0 6.59825)
(-77.1479 -9.38072e-17 10.0708)
(-79.0131 0 14.416)
(-81.8755 -3.53695e-16 20.1689)
(-81.3784 0 27.0532)
(-77.6084 5.68985e-16 29.9332)
(-64.3721 -6.40122e-16 32.4029)
(-42.587 0 34.4003)
(-21.3517 0 40.8407)
(6.49781 5.63387e-16 49.3513)
(29.6379 0 42.9138)
(36.8215 0 30.4069)
(39.2248 1.74655e-17 19.2139)
(43.3724 0 13.635)
(52.4465 -1.01555e-15 14.8277)
(62.8426 -3.84743e-16 13.1708)