/*--------------------------------*- C++ -*----------------------------------*\
| =========                 |                                                 |
| \\      /  F ield         | OpenFOAM: The Open Source CFD Toolbox           |
|  \\    /   O peration     | Version:  2412                                  |
|   \\  /    A nd           | Website:  www.openfoam.com                      |
|    \\/     M anipulation  |                                                 |
\*---------------------------------------------------------------------------*/
FoamFile
{
    version     2.0;
    format      ascii;
    arch        "LSB;label=32;scalar=64";
    class       surfaceScalarField;
    location    "1.145";
    object      phi;
}
// * * * * * * * * * * * * * * * * * * * * * * * * * * * * * * * * * * * * * //

dimensions      [0 3 -1 0 0 0 0];

oriented        oriented;

internalField   nonuniform List<scalar> 
24930
(
0.0158381
0.0210511
-0.0368987
0.00652773
0.00931032
0.0030109
0.00351682
0.00169109
0.00131976
0.0010915
0.000599544
0.000740602
0.000350839
0.000504137
0.000236391
0.000334228
0.00016984
0.0002079
0.000126281
0.000112177
9.57049e-05
3.78741e-05
7.43155e-05
-2.00253e-05
5.79277e-05
-6.55466e-05
4.55548e-05
-0.000101393
3.58703e-05
-0.000128729
2.7357e-05
-0.000150531
2.18466e-05
-0.000166615
1.61868e-05
-0.000178908
1.24393e-05
-0.000187465
8.75317e-06
-0.000193239
5.94821e-06
-0.000196608
3.47394e-06
-0.000197858
1.24729e-06
-0.000197557
-4.87361e-07
-0.000195835
-1.71518e-06
-0.000192976
-2.71472e-06
-0.000189275
-3.53864e-06
-0.000184746
-4.12596e-06
-0.00017961
-4.82726e-06
-0.000174138
-5.66776e-06
-0.000168396
-5.99576e-06
-0.000162357
-6.20442e-06
-0.000156186
-6.35056e-06
-0.000149993
-6.41133e-06
-0.00014379
-6.45353e-06
-0.000137675
-6.35907e-06
-0.000131638
-6.23792e-06
-0.000125729
-6.10328e-06
-0.000120013
-5.90489e-06
-0.000114504
-5.64514e-06
-0.00010922
-5.37061e-06
-0.000104173
-5.09965e-06
-9.93453e-05
-4.83629e-06
-9.47351e-05
-4.56872e-06
-9.03281e-05
-4.31137e-06
-8.61033e-05
-4.08728e-06
-8.20729e-05
-3.86742e-06
-7.82561e-05
-3.6439e-06
-7.4697e-05
-3.38295e-06
-7.1471e-05
-3.0466e-06
-6.86651e-05
-2.62407e-06
-6.63827e-05
-2.10445e-06
-6.47103e-05
-1.49465e-06
-6.37033e-05
-8.34718e-07
-6.34394e-05
-8.94484e-08
-6.37043e-05
3.59557e-07
-6.44074e-05
7.63456e-07
-6.511e-05
6.90896e-07
-6.5199e-05
-1.83507e-08
-6.3697e-05
-1.63506e-06
-5.94274e-05
-4.3918e-06
-5.10582e-05
-8.44876e-06
-3.74613e-05
-1.36514e-05
-1.80981e-05
-1.94019e-05
6.42689e-06
-2.45472e-05
3.42512e-05
-2.78377e-05
6.19505e-05
-2.77295e-05
8.54358e-05
-2.35241e-05
0.000100588
-1.52008e-05
0.000104744
-4.22638e-06
9.68325e-05
7.89712e-06
7.95098e-05
1.73221e-05
5.81103e-05
2.142e-05
4.08484e-05
1.73208e-05
3.37491e-05
7.16951e-06
3.48344e-05
-9.23732e-07
3.71451e-05
-1.94732e-06
3.08913e-05
6.50113e-06
1.04476e-05
2.06343e-05
-2.51775e-05
3.5788e-05
-6.53606e-05
4.02514e-05
-0.000102622
3.72949e-05
-0.000127767
2.51552e-05
-0.000138162
1.03795e-05
-0.000128925
-9.29374e-06
-0.000108852
-2.00959e-05
-0.00010811
-7.0551e-07
-0.000158368
5.0227e-05
-0.000282386
0.000124033
-0.000522818
0.000240426
-0.000916764
0.000393932
-0.00143239
0.000515638
-0.00184149
0.000409124
-0.00188679
4.4911e-05
-0.00151086
-0.000375949
-0.000485895
-0.00102495
-0.000164279
-0.000321749
-0.00139668
0.0012324
0.00185511
-0.00325178
0.00531677
-0.0034617
0.00257563
0.00274116
0.00102359
0.00155208
0.000492098
0.000531477
2.82394e-05
0.000463844
-0.000325271
0.000353511
5.23066e-05
-0.000377599
0.00113057
-0.00107826
0.00130323
-0.00017253
0.00171403
-0.000410767
0.00211458
-0.000400534
0.00189828
0.000216523
0.000557152
0.00134126
-0.00160913
0.0021663
-0.00343118
0.00182207
-0.0048166
0.00138542
-0.00510999
0.000293427
-0.00286556
-0.00224444
-4.08772e-05
-0.00282466
0.00147138
-0.00151224
0.00253437
-0.001063
-0.000435196
0.0334817
0.0300159
-0.0424466
0.02248
0.020312
0.0142211
0.0117757
0.00914277
0.00639805
0.00616091
0.00358128
0.00432966
0.00218195
0.00311302
0.00145291
0.00225088
0.00103187
0.00161314
0.000763917
0.00112709
0.000581689
0.000750021
0.000451316
0.000453261
0.000354625
0.000218002
0.000280756
3.30585e-05
0.000220758
-0.000122579
0.000182953
-0.000246862
0.000146077
-0.000344595
0.000113881
-0.000421909
8.96814e-05
-0.000481719
6.84938e-05
-0.000527341
5.15189e-05
-0.000561023
3.71538e-05
-0.000584398
2.47173e-05
-0.000599503
1.47386e-05
-0.000607711
6.32395e-06
-0.000609936
-3.39604e-07
-0.000607466
-5.88674e-06
-0.000600857
-1.09504e-05
-0.000590994
-1.46425e-05
-0.000578551
-1.80129e-05
-0.000564048
-2.04672e-05
-0.00054788
-2.22548e-05
-0.000530541
-2.35463e-05
-0.000512392
-2.44261e-05
-0.000493654
-2.50268e-05
-0.000474712
-2.51243e-05
-0.000455725
-2.50347e-05
-0.000436859
-2.47851e-05
-0.000418317
-2.43003e-05
-0.000400235
-2.36161e-05
-0.00038272
-2.28051e-05
-0.000365832
-2.19445e-05
-0.000349565
-2.10947e-05
-0.000333931
-2.02309e-05
-0.000318907
-1.94173e-05
-0.000304443
-1.86759e-05
-0.000290584
-1.78711e-05
-0.000277413
-1.69637e-05
-0.000265099
-1.58403e-05
-0.000253912
-1.43749e-05
-0.000244157
-1.25158e-05
-0.000236185
-1.01965e-05
-0.000230302
-7.49088e-06
-0.000226725
-4.50318e-06
-0.000225534
-1.36627e-06
-0.000226339
1.14873e-06
-0.00022852
3.00496e-06
-0.000230622
2.83573e-06
-0.000230408
-2.62161e-07
-0.000224649
-7.2807e-06
-0.00020919
-1.97207e-05
-0.000179478
-3.80768e-05
-0.000131646
-6.14238e-05
-6.3895e-05
-8.71139e-05
2.19015e-05
-0.000110319
0.000119268
-0.000125194
0.000217345
-0.00012579
0.000301991
-0.000108146
0.000359133
-7.23158e-05
0.000378743
-2.37965e-05
0.000356371
3.0269e-05
0.000299308
7.43853e-05
0.000224589
9.61151e-05
0.000158901
8.29785e-05
0.000122362
4.36501e-05
0.00011074
1.06147e-05
0.000101818
7.01399e-06
6.72008e-05
4.10104e-05
-1.36608e-05
0.000101328
-0.000137533
0.000159565
-0.000274386
0.000177037
-0.000393968
0.000156858
-0.000469297
0.000100469
-0.000493407
3.45049e-05
-0.000457501
-4.51617e-05
-0.000389328
-8.82586e-05
-0.000392151
2.14283e-06
-0.000581173
0.000239239
-0.00104084
0.000583729
-0.00190031
0.00109992
-0.00326103
0.00175467
-0.00497478
0.0022294
-0.00627972
0.00171411
-0.00625957
2.46165e-05
-0.00493135
-0.00170419
-0.0012418
-0.00471447
-0.000133761
-0.00142981
-0.00436211
0.00546077
0.00604259
-0.0136565
0.0173725
-0.0147916
0.00923822
0.0108755
0.00372702
0.00706334
0.00168497
0.00257352
2.56687e-05
0.00212311
-0.00114017
0.00151936
0.000380804
-0.00189861
0.00377179
-0.00446921
0.00439553
-0.000796382
0.00582075
-0.00183596
0.00696488
-0.00154466
0.00542691
0.0017543
9.03266e-06
0.00675916
-0.00731563
0.00949088
-0.0131107
0.00761717
-0.0170685
0.0053432
-0.0176755
0.000900395
-0.0106608
-0.00925917
-0.00116372
-0.0123217
0.00468726
-0.00736322
0.0088201
-0.00519587
-0.00213267
0.0432627
0.0323115
-0.0455583
0.0359386
0.027636
0.0273323
0.0203819
0.0199039
0.0138265
0.0144005
0.00908452
0.0105453
0.00603706
0.00783529
0.00416282
0.00587314
0.00299389
0.00440555
0.0022314
0.00327867
0.0017085
0.00239598
0.00133396
0.0016946
0.00105597
0.00113146
0.000843856
0.000676093
0.000676084
0.000308596
0.000550416
1.27015e-05
0.000441936
-0.000233513
0.000360077
-0.000430788
0.000286921
-0.000588432
0.000226083
-0.000713384
0.000176387
-0.000810872
0.00013457
-0.000885147
9.90059e-05
-0.000939882
6.97694e-05
-0.000978183
4.44083e-05
-0.00100213
2.36638e-05
-0.00101454
6.53441e-06
-0.00101776
-8.09515e-06
-0.00101306
-1.94162e-05
-0.00100146
-2.94362e-05
-0.000984566
-3.73485e-05
-0.000963303
-4.34683e-05
-0.0009387
-4.80835e-05
-0.000911544
-5.15344e-05
-0.00088242
-5.4093e-05
-0.000852121
-5.53765e-05
-0.000821088
-5.60113e-05
-0.0007897
-5.61176e-05
-0.000758387
-5.55812e-05
-0.000727477
-5.45076e-05
-0.000697235
-5.30319e-05
-0.000667822
-5.13521e-05
-0.000639285
-4.96366e-05
-0.000611685
-4.78419e-05
-0.00058502
-4.61057e-05
-0.000559235
-4.4495e-05
-0.000534429
-4.27131e-05
-0.000510777
-4.06504e-05
-0.000488598
-3.80454e-05
-0.000468387
-3.46071e-05
-0.000450705
-3.02136e-05
-0.000436196
-2.47149e-05
-0.000425416
-1.82849e-05
-0.00041877
-1.11734e-05
-0.000416323
-3.76391e-06
-0.00041748
2.29584e-06
-0.000420972
6.52235e-06
-0.000424179
6.04766e-06
-0.000423026
-1.35106e-06
-0.000411744
-1.85006e-05
-0.000382794
-4.86233e-05
-0.000328126
-9.27128e-05
-0.000240805
-0.00014872
-0.000117647
-0.000210256
3.82644e-05
-0.000266218
0.000216032
-0.000302944
0.000396291
-0.000306033
0.000554082
-0.000265917
0.000664241
-0.000182458
0.00070767
-6.72055e-05
0.000674959
6.29848e-05
0.000576489
0.000172864
0.000440487
0.000232112
0.000312751
0.00021072
0.000229121
0.000127265
0.000185692
5.40043e-05
0.00014737
4.50184e-05
6.77912e-05
0.00012054
-8.53556e-05
0.000254405
-0.000315324
0.000389515
-0.000558447
0.000420123
-0.00076186
0.000360258
-0.000880782
0.000219367
-0.000908704
6.24342e-05
-0.000839472
-0.000114395
-0.000720821
-0.000206926
-0.000737682
1.90291e-05
-0.00110495
0.000606485
-0.00197858
0.00145738
-0.00356895
0.0026903
-0.00601599
0.00420174
-0.00899705
0.00521046
-0.0111536
0.00387071
-0.0108909
-0.000237898
-0.00842625
-0.00416886
-0.00175998
-0.0113807
0.000331544
-0.00352139
-0.00760184
0.0133942
0.0100092
-0.0312674
0.0302426
-0.035025
0.0171455
0.0239726
0.00717792
0.0170309
0.00308129
0.00667014
-1.04822e-05
0.00521484
-0.00202699
0.00353587
0.000918207
-0.00484384
0.00671303
-0.010264
0.00777469
-0.00185808
0.0103114
-0.00437266
0.0119791
-0.00321228
0.00828031
0.00545304
-0.00210572
0.0171452
-0.0153319
0.0227171
-0.0249544
0.0172396
-0.0309587
0.0113475
-0.0314165
0.00135813
-0.0194587
-0.021217
-0.00299514
-0.0287853
0.00772516
-0.0180835
0.0156307
-0.0131015
-0.00554477
0.0490874
0.0318175
-0.0485936
0.0458183
0.0309051
0.0394977
0.0267025
0.0321051
0.0212189
0.025212
0.0159775
0.0195188
0.0117302
0.0150773
0.00860422
0.0116655
0.00640562
0.00902934
0.00486747
0.00696583
0.00377196
0.00532841
0.00297135
0.00401377
0.00237059
0.00294842
0.00190919
0.00207904
0.00154546
0.00136849
0.00126097
0.000784462
0.00102598
0.00030625
0.000838343
-8.52256e-05
0.000678455
-0.000407227
0.000548141
-0.000667455
0.000436634
-0.000876259
0.000343336
-0.00104123
0.000264046
-0.00116936
0.000198111
-0.00126654
0.000141408
-0.00133749
9.45274e-05
-0.00138604
5.48839e-05
-0.00141542
2.08706e-05
-0.00142898
-5.95938e-06
-0.00143045
-2.78599e-05
-0.00142084
-4.69888e-05
-0.00140223
-6.21036e-05
-0.00137653
-7.37852e-05
-0.00134519
-8.28722e-05
-0.00130935
-8.99105e-05
-0.0012704
-9.43208e-05
-0.00122923
-9.71598e-05
-0.00118657
-9.8764e-05
-0.00114317
-9.89727e-05
-0.00109967
-9.80109e-05
-0.00105657
-9.61244e-05
-0.00101422
-9.37022e-05
-0.000972774
-9.10886e-05
-0.00093239
-8.82317e-05
-0.00089313
-8.53767e-05
-0.00085497
-8.26741e-05
-0.000818091
-7.96123e-05
-0.000782788
-7.59713e-05
-0.000749566
-7.12782e-05
-0.000719181
-6.49984e-05
-0.000692496
-5.69007e-05
-0.000670485
-4.67187e-05
-0.000653996
-3.4767e-05
-0.000643638
-2.1539e-05
-0.000639467
-7.90425e-06
-0.000640676
3.47431e-06
-0.000645192
1.10785e-05
-0.000649094
9.9691e-06
-0.000646261
-4.01507e-06
-0.000628027
-3.66933e-05
-0.000583126
-9.34882e-05
-0.000499607
-0.000176204
-0.000367179
-0.000281125
-0.000181064
-0.000396356
5.44763e-05
-0.000501745
0.000323926
-0.000572378
0.000599235
-0.000581327
0.000843724
-0.000510389
0.00101975
-0.000358469
0.00109736
-0.000144802
0.00106
0.00010035
0.000919314
0.000313559
0.000713634
0.000437789
0.000508218
0.000416148
0.000356717
0.00027876
0.000258401
0.000152321
0.000168012
0.000135291
2.25164e-05
0.000266022
-0.000218535
0.000495405
-0.000565873
0.000736847
-0.000921445
0.000775663
-0.00120704
0.000645849
-0.00136165
0.000373952
-0.00138449
8.52739e-05
-0.00127751
-0.000221374
-0.00111026
-0.000374193
-0.00115759
6.64035e-05
-0.00175114
0.00120002
-0.003127
0.00283326
-0.00556686
0.00513019
-0.00921378
0.00784869
-0.0135066
0.00950324
-0.0164049
0.00676911
-0.0156708
-0.000971743
-0.0119158
-0.00792386
-0.00202549
-0.021271
0.00124094
-0.00678789
-0.0110944
0.0257295
0.0132637
-0.0556254
0.0434699
-0.0652313
0.0263639
0.0410787
0.0115866
0.0318083
0.00477369
0.013483
-5.88752e-05
0.0100474
-0.00294121
0.00641821
0.00168566
-0.00947076
0.0099634
-0.0185417
0.0114378
-0.00333253
0.0151335
-0.00806827
0.0170093
-0.00508807
0.0101412
0.0123211
-0.00635988
0.0336463
-0.0256818
0.0420389
-0.0386494
0.0302073
-0.0460054
0.0187035
-0.0456775
0.00103021
-0.0285709
-0.0383236
-0.00522958
-0.0521266
0.0103228
-0.0336359
0.0224997
-0.0252784
-0.0112429
0.0529161
0.0306738
-0.0517724
0.0523203
0.0315008
0.0489667
0.030056
0.0434512
0.0267343
0.0369522
0.0224764
0.0305191
0.0181631
0.024765
0.0143582
0.0199021
0.0112685
0.0159031
0.00886642
0.0126448
0.00703028
0.00998962
0.00562648
0.00781758
0.00454262
0.00603221
0.00369455
0.00455802
0.00301964
0.00333864
0.00248036
0.00232663
0.00203802
0.00148781
0.00167722
0.000791998
0.00137433
0.000217618
0.0011226
-0.000255663
0.000909964
-0.000643336
0.000730928
-0.000956886
0.000577669
-0.00120781
0.000449198
-0.00140562
0.000339208
-0.00155795
0.000246875
-0.00167164
0.000168792
-0.00175387
0.000102945
-0.00180861
4.87904e-05
-0.00183808
1.57174e-06
-0.00185062
-3.45328e-05
-0.00184701
-6.57563e-05
-0.00183009
-9.07494e-05
-0.00180252
-0.000110465
-0.00176628
-0.00012614
-0.00172359
-0.000137018
-0.00167603
-0.000144706
-0.00162485
-0.000149932
-0.00157132
-0.000152507
-0.0015165
-0.000152841
-0.00146127
-0.000151356
-0.00140626
-0.000148721
-0.0013518
-0.000145543
-0.00129825
-0.000141787
-0.00124578
-0.00013785
-0.00119445
-0.000134016
-0.00114456
-0.00012951
-0.00109658
-0.000123964
-0.00105122
-0.000116632
-0.00100957
-0.000106653
-0.000972816
-9.36437e-05
-0.00094233
-7.71872e-05
-0.000919287
-5.77924e-05
-0.000904523
-3.62946e-05
-0.000898083
-1.43297e-05
-0.000898847
4.24839e-06
-0.000903936
1.6215e-05
-0.00090789
1.39495e-05
-0.000902342
-9.46799e-06
-0.000875396
-6.36058e-05
-0.000811771
-0.000157083
-0.000695309
-0.00029264
-0.000512056
-0.000464357
-0.000255426
-0.000652971
6.92912e-05
-0.000826448
0.00044193
-0.000945001
0.00082565
-0.000965034
0.0011714
-0.000856121
0.00142784
-0.000614899
0.00155235
-0.000269305
0.00151863
0.000134069
0.00133693
0.000495273
0.00105364
0.000721082
0.000753042
0.000716759
0.000508697
0.000523103
0.00032718
0.000333852
0.000157971
0.000304464
-7.15919e-05
0.000495594
-0.000419816
0.000843586
-0.000895968
0.001213
-0.00136756
0.00124722
-0.00173075
0.00100903
-0.00191027
0.000553452
-0.00191855
9.35657e-05
-0.00177251
-0.000367419
-0.00156515
-0.00058157
-0.00166841
0.000169711
-0.0025476
0.00207918
-0.00452492
0.00481061
-0.00793604
0.00854133
-0.0128774
0.0127901
-0.0184661
0.0150919
-0.0219085
0.0102116
-0.0204337
-0.00244649
-0.0152559
-0.0131017
-0.00212201
-0.0344048
0.00244497
-0.011355
-0.0145401
0.0427146
0.0154024
-0.085568
0.0562078
-0.106037
0.0369024
0.0603841
0.0171579
0.0515529
0.00688803
0.0237529
-5.10527e-05
0.0169864
-0.00385412
0.0102213
0.00265312
-0.015978
0.0135292
-0.0294177
0.0154069
-0.00521028
0.0202095
-0.0128708
0.02184
-0.00671851
0.0107857
0.0233754
-0.012793
0.0572251
-0.0381898
0.0674357
-0.0537052
0.0457226
-0.0615893
0.0265876
-0.0597589
-0.000800188
-0.037355
-0.0607274
-0.00745333
-0.0820282
0.0122873
-0.0533765
0.0288631
-0.0418543
-0.0199177
0.0560767
0.0297091
-0.0551121
0.0566477
0.0309297
0.0555994
0.0311042
0.052512
0.0298217
0.0477301
0.0272582
0.0419755
0.0239177
0.0359709
0.0203627
0.030244
0.0169952
0.0250849
0.0140255
0.0205948
0.0115203
0.0167616
0.00945965
0.0135205
0.00778369
0.0107914
0.00642369
0.00849622
0.00531477
0.00656819
0.00440838
0.00494792
0.00365828
0.00358841
0.00303676
0.0024483
0.00251448
0.00149518
0.00207577
0.00070112
0.00170409
4.3879e-05
0.00138805
-0.000499567
0.00112116
-0.000942704
0.000892422
-0.00130065
0.000697206
-0.00158565
0.000531842
-0.00180813
0.000391475
-0.00197758
0.000272486
-0.00210218
0.000173312
-0.00219104
9.05922e-05
-0.00224438
1.87006e-05
-0.00227294
-3.72628e-05
-0.00228012
-8.3618e-05
-0.00226848
-0.000122124
-0.00224166
-0.000152942
-0.0022031
-0.000175588
-0.00215537
-0.000192428
-0.00210048
-0.000204805
-0.00204044
-0.000212553
-0.00197694
-0.000216351
-0.00191141
-0.000216896
-0.00184489
-0.000215245
-0.00177805
-0.000212382
-0.00171151
-0.000208332
-0.00164566
-0.000203701
-0.0015807
-0.000198981
-0.00151713
-0.000193092
-0.00145561
-0.000185483
-0.00139716
-0.000175079
-0.0013432
-0.000160608
-0.00129534
-0.000141491
-0.00125538
-0.000117129
-0.00122486
-8.82872e-05
-0.00120487
-5.62607e-05
-0.00119547
-2.37138e-05
-0.00119516
3.96699e-06
-0.00120015
2.12511e-05
-0.00120331
1.71401e-05
-0.00119377
-1.89659e-05
-0.00115612
-0.000101219
-0.00107078
-0.00024239
-0.000917116
-0.000446281
-0.000677272
-0.000704179
-0.000342651
-0.000987577
8.06231e-05
-0.00124971
0.000567843
-0.0014322
0.00107357
-0.00147075
0.00153602
-0.00131856
0.00188916
-0.00096802
0.00207582
-0.000455961
0.00205699
0.000152906
0.00183802
0.000714248
0.00147027
0.00108884
0.00105573
0.00113131
0.000689994
0.000888843
0.000392075
0.000631789
0.000112475
0.00058404
-0.000223431
0.000831516
-0.000694477
0.00131459
-0.00130787
0.0018264
-0.00189568
0.00183501
-0.00232899
0.00144234
-0.00252178
0.000746221
-0.00250796
7.97613e-05
-0.00232689
-0.000548493
-0.0020963
-0.000812183
-0.0022912
0.000364667
-0.00352617
0.00331413
-0.00621227
0.00749673
-0.0107123
0.0130414
-0.0170128
0.0190906
-0.0238153
0.0218944
-0.0275222
0.0139185
-0.0250203
-0.00494843
-0.0183556
-0.0197665
-0.00219806
-0.0505623
0.00377672
-0.0173298
-0.0172104
0.0637017
0.0162238
-0.119002
0.0672067
-0.15702
0.0485942
0.0789965
0.0240745
0.0760727
0.00958919
0.0382382
8.51585e-05
0.0264904
-0.00472985
0.0150363
0.00377384
-0.0244818
0.0173775
-0.0430213
0.019709
-0.0075418
0.0254633
-0.0186251
0.0262692
-0.00752436
0.00991382
0.0397308
-0.021535
0.088674
-0.0524691
0.0983698
-0.0694331
0.0626867
-0.0770265
0.0341811
-0.0730591
-0.00476763
-0.0454373
-0.0883492
-0.00949818
-0.117967
0.013418
-0.0762926
0.0341541
-0.0625905
-0.0323033
0.0593488
0.029037
-0.0586768
0.0601369
0.0301415
0.0602959
0.0309451
0.0591403
0.0309772
0.0564115
0.0299869
0.0522829
0.0280462
0.0471856
0.0254599
0.0416162
0.0225646
0.0360069
0.0196348
0.0306679
0.0168592
0.0257819
0.0143457
0.0214274
0.0121382
0.0176131
0.010238
0.0143084
0.00861938
0.0114668
0.00724999
0.00903463
0.00609043
0.00696162
0.00510976
0.00519999
0.00427613
0.00370866
0.00356714
0.00245091
0.00296192
0.00139485
0.00244398
0.000513901
0.00200213
-0.000216287
0.00162261
-0.000817141
0.00129809
-0.00130597
0.00102058
-0.00169846
0.000783997
-0.00200858
0.000582671
-0.00224806
0.000412686
-0.00242699
0.000269535
-0.0025589
0.000150729
-0.00264532
4.91582e-05
-0.00269564
-3.33681e-05
-0.00271896
-9.88409e-05
-0.00271649
-0.000155368
-0.0026941
-0.000197975
-0.0026559
-0.000230621
-0.00260504
-0.000255645
-0.00254453
-0.00027306
-0.00247699
-0.000283903
-0.00240462
-0.000289278
-0.00232909
-0.000290775
-0.00225157
-0.000289906
-0.00217308
-0.00028682
-0.00209438
-0.00028241
-0.00201589
-0.000277474
-0.00193838
-0.000270608
-0.00186282
-0.000261051
-0.00179054
-0.000247351
-0.0017234
-0.00022774
-0.00166348
-0.000201405
-0.00161305
-0.000167531
-0.0015741
-0.000127214
-0.00154798
-8.23521e-05
-0.00153476
-3.6901e-05
-0.00153253
1.80723e-06
-0.00153654
2.52988e-05
-0.00153777
1.84171e-05
-0.00152271
-3.40005e-05
-0.00147213
-0.000151757
-0.00136198
-0.000352509
-0.00116691
-0.000641335
-0.000864968
-0.00100609
-0.000445347
-0.00140718
8.52981e-05
-0.00178034
0.00069791
-0.0020448
0.00133903
-0.00211186
0.00193415
-0.00191367
0.00240179
-0.00143565
0.00266859
-0.000722752
0.00267949
0.000142014
0.0024306
0.000963149
0.00197376
0.00154568
0.00142615
0.00167893
0.000907238
0.00140776
0.00045493
0.00108412
2.82748e-05
0.00101067
-0.000436731
0.00129654
-0.00104451
0.00192233
-0.00180095
0.00258285
-0.00250175
0.00253578
-0.00299532
0.00193591
-0.00318947
0.000940349
-0.00314916
3.94596e-05
-0.00294419
-0.000753467
-0.00271754
-0.00103885
-0.00305136
0.000698543
-0.00472281
0.00498556
-0.00822878
0.0110027
-0.0139217
0.0187343
-0.0216013
0.0267702
-0.0294548
0.0297479
-0.0330733
0.0175372
-0.0292828
-0.008739
-0.0211584
-0.0278909
-0.00253464
-0.0691859
0.00496595
-0.0248305
-0.018101
0.0867686
0.0159364
-0.153039
0.0752634
-0.216347
0.0611418
0.093118
0.0324863
0.104728
0.0130736
0.0576509
0.000446382
0.0391175
-0.00553572
0.0210184
0.00496367
-0.0349812
0.0214663
-0.0595239
0.0243754
-0.010451
0.0308056
-0.0250552
0.0300476
-0.0067663
0.00731046
0.0624678
-0.0324849
0.128469
-0.0679677
0.133853
-0.0850898
0.0798088
-0.091734
0.0408253
-0.085258
-0.0112436
-0.0528767
-0.12073
-0.0114586
-0.159385
0.0135676
-0.101319
0.037918
-0.0869409
-0.0490774
0.0629886
0.0285471
-0.0624988
0.0636351
0.0294948
0.0641601
0.0304201
0.0640761
0.0310611
0.0629564
0.0311065
0.0606009
0.0304016
0.0570638
0.0289969
0.0525794
0.0270488
0.0474697
0.0247444
0.0420683
0.0222606
0.0366676
0.0197463
0.0314904
0.0173155
0.0266824
0.015046
0.022321
0.0129807
0.0184331
0.0111379
0.0150103
0.00951323
0.0120258
0.00809421
0.00944238
0.0068596
0.0072203
0.00578928
0.00531983
0.00486248
0.00370336
0.00406037
0.00233712
0.00336836
0.00118933
0.00277034
0.000232283
0.00225512
-0.000559166
0.0018119
-0.00120705
0.00143182
-0.00173111
0.00110675
-0.00214867
0.000830191
-0.00247493
0.000595782
-0.00272306
0.000398873
-0.00290769
0.000233856
-0.00303745
9.64354e-05
-0.00311655
-1.98755e-05
-0.00316161
-0.000110276
-0.00317359
-0.000185971
-0.00315968
-0.000244544
-0.00312469
-0.000290609
-0.00307318
-0.000324562
-0.00300905
-0.000348046
-0.00293561
-0.000362727
-0.00285547
-0.000370919
-0.00277051
-0.000374871
-0.00268238
-0.000374954
-0.00259235
-0.000372439
-0.00250125
-0.000368587
-0.0024102
-0.000361663
-0.00232057
-0.000350685
-0.00223412
-0.0003338
-0.00215319
-0.000308658
-0.00208041
-0.000274178
-0.00201861
-0.000229305
-0.00197025
-0.000175542
-0.00193701
-0.000115561
-0.00191896
-5.49194e-05
-0.00191384
-3.29716e-06
-0.00191565
2.7151e-05
-0.00191357
1.63892e-05
-0.0018912
-5.63435e-05
-0.00182533
-0.000217593
-0.00168726
-0.000490545
-0.00144681
-0.000881763
-0.00107784
-0.00137504
-0.000567094
-0.00191791
7.87138e-05
-0.00242613
0.000826368
-0.00279244
0.0016155
-0.00290098
0.00235928
-0.00265743
0.00296053
-0.00203689
0.00332825
-0.00109047
0.0033879
8.23713e-05
0.00312111
0.00122995
0.00257418
0.0020926
0.00187537
0.00237776
0.00116933
0.0021138
0.000520571
0.0017329
-8.64185e-05
0.00161764
-0.000710501
0.00192064
-0.00146746
0.00267924
-0.00236963
0.00348504
-0.00317717
0.0033433
-0.00371989
0.00247862
-0.00390519
0.00112563
-0.00383911
-2.66273e-05
-0.00363043
-0.000962149
-0.00344674
-0.00122255
-0.0039789
0.00123076
-0.00617607
0.00718271
-0.0106105
0.0154372
-0.0175747
0.0256986
-0.0265961
0.0357916
-0.0352577
0.0384095
-0.0383993
0.0206789
-0.0331425
-0.0139958
-0.0237208
-0.0373127
-0.00352977
-0.0893768
0.00566166
-0.034022
-0.016362
0.108792
0.0153289
-0.18473
0.0799661
-0.280984
0.074201
0.0988831
0.0425013
0.136428
0.0175676
0.0825845
0.00117752
0.0555076
-0.00622436
0.0284203
0.00612415
-0.0473297
0.025717
-0.0791167
0.0294332
-0.0141672
0.0361427
-0.0317646
0.0329335
-0.00355711
0.00275488
0.0926464
-0.0454552
0.176679
-0.0839798
0.172377
-0.0999519
0.0957809
-0.105317
0.0461902
-0.0963899
-0.0201705
-0.0602012
-0.156919
-0.0137946
-0.205792
0.0126138
-0.127727
0.0399099
-0.114237
-0.07073
0.0669821
0.0281465
-0.0665816
0.0674615
0.0290153
0.0679683
0.0299132
0.0682768
0.0307525
0.0680673
0.031316
0.0670487
0.0314201
0.0650516
0.0309939
0.0620507
0.0300497
0.0581456
0.0286495
0.0535235
0.0268827
0.0484191
0.0248507
0.0430784
0.0226563
0.0377282
0.0203961
0.0325551
0.0181538
0.0276945
0.0159985
0.0232299
0.0139778
0.0192019
0.0121221
0.0156184
0.0104432
0.0124662
0.00894159
0.00971917
0.00760957
0.00734467
0.00643485
0.00530811
0.0054049
0.00357386
0.00450451
0.00210823
0.00372074
0.000879265
0.00304074
-0.000142144
0.00245316
-0.00098276
0.00194737
-0.00166666
0.00151408
-0.00221536
0.0011445
-0.00264835
0.000831876
-0.00298185
0.000567386
-0.00323204
0.000346668
-0.00341663
0.000164789
-0.00353308
6.02057e-06
-0.0036067
-0.000112337
-0.00363902
-0.00021224
-0.00363768
-0.000291937
-0.00360947
-0.000352754
-0.00356023
-0.000397307
-0.0034948
-0.000428162
-0.00341714
-0.00044858
-0.00333018
-0.000461826
-0.00323651
-0.000468636
-0.00313816
-0.000470794
-0.00303653
-0.00047023
-0.00293329
-0.000464914
-0.00283033
-0.000453655
-0.00272992
-0.000434203
-0.00263502
-0.000403549
-0.00254887
-0.000360325
-0.00247494
-0.000303207
-0.00241625
-0.000234203
-0.00237484
-0.000156942
-0.00235079
-7.89301e-05
-0.00234157
-1.25092e-05
-0.00233968
2.5297e-05
-0.00233268
9.44413e-06
-0.00230107
-8.79282e-05
-0.00221748
-0.000301133
-0.00204862
-0.000659383
-0.00175939
-0.00117096
-0.00131943
-0.00181497
-0.000712813
-0.00252452
5.44686e-05
-0.0031934
0.000944935
-0.00368289
0.00189329
-0.00384932
0.00280117
-0.0035653
0.00355595
-0.00279165
0.00404812
-0.00158263
0.00418023
-4.97373e-05
0.00391345
0.00149674
0.00328085
0.0027252
0.00241558
0.00324305
0.00148789
0.00304149
0.000597513
0.00262329
-0.000229873
0.00244501
-0.00103898
0.00272977
-0.00195587
0.00359609
-0.00300373
0.00453291
-0.00390963
0.00424917
-0.00449068
0.00305967
-0.0046603
0.00129523
-0.00457631
-0.000110595
-0.00439465
-0.00114381
-0.00430572
-0.00131151
-0.00510739
0.0020325
-0.00792473
0.01
-0.0133855
0.0208979
-0.0216622
0.0339754
-0.0319217
0.0460511
-0.0410787
0.0475666
-0.04337
0.0229702
-0.0366128
-0.0207529
-0.0262264
-0.0476992
-0.0056484
-0.109955
0.00544895
-0.0451195
-0.0118232
0.126064
0.0157976
-0.212351
0.082386
-0.347572
0.0874976
0.0937715
0.05419
0.169736
0.0233207
0.113454
0.00244886
0.0763794
-0.0067185
0.0375877
0.00716383
-0.0612121
0.0300354
-0.101988
0.0348953
-0.0190272
0.0413663
-0.0382356
0.0346828
0.00312646
-0.00378769
0.131117
-0.0600825
0.232974
-0.099728
0.212023
-0.113469
0.109522
-0.117676
0.0503963
-0.106828
-0.0310184
-0.0681786
-0.195568
-0.0171043
-0.256866
0.010504
-0.155335
0.0401534
-0.143886
-0.0974302
0.0712876
0.0277946
-0.0709357
0.0716647
0.0286381
0.0720738
0.029504
0.0724376
0.0303886
0.0725913
0.0311622
0.0723213
0.03169
0.0714242
0.0318909
0.0697512
0.0317226
0.0672312
0.0311694
0.0638741
0.0302397
0.059762
0.0289628
0.0550355
0.0273828
0.0498759
0.0255556
0.0444842
0.0235456
0.0390583
0.0214244
0.033772
0.0192641
0.0287615
0.0171326
0.0241195
0.0150852
0.0198989
0.0131623
0.0161201
0.0113885
0.0127798
0.00977517
0.00985984
0.00832485
0.00733203
0.00703227
0.00516358
0.00588919
0.00331949
0.00488474
0.00176513
0.00400749
0.000466955
0.00324557
-0.000606273
0.00258734
-0.00148378
0.00202206
-0.00219233
0.00154044
-0.00275514
0.0011302
-0.00319332
0.00078487
-0.00352524
0.000496686
-0.00377565
0.00025663
-0.00394275
5.47791e-05
-0.00405173
-0.000103284
-0.00411073
-0.000232935
-0.0041272
-0.000336282
-0.00411
-0.000414513
-0.00406638
-0.000471793
-0.00400218
-0.000512779
-0.00392186
-0.000542151
-0.00382931
-0.00056119
-0.00372774
-0.000572373
-0.00361938
-0.000578606
-0.00350667
-0.000577641
-0.0033922
-0.000568136
-0.00327892
-0.000547484
-0.0031705
-0.000511962
-0.0030709
-0.000459913
-0.00298436
-0.000389724
-0.00291453
-0.000304011
-0.00286387
-0.000207564
-0.00283264
-0.000110123
-0.00281761
-2.74934e-05
-0.00281063
1.83483e-05
-0.00279682
-4.30177e-06
-0.00275394
-0.000130778
-0.00265038
-0.000404644
-0.00244833
-0.000861402
-0.00210789
-0.00151137
-0.00159446
-0.00232837
-0.000889169
-0.00322979
4.60379e-06
-0.00408716
0.0010423
-0.00472056
0.00215896
-0.00496597
0.00324512
-0.00465145
0.00417354
-0.00372007
0.00481608
-0.00222516
0.00504946
-0.000283112
0.00480774
0.00173847
0.00410139
0.00343155
0.00305982
0.00428464
0.0018776
0.00422372
0.000699054
0.00380186
-0.000391474
0.00353551
-0.00141067
0.00374899
-0.00249683
0.0046822
-0.00368847
0.00572456
-0.00468378
0.00524445
-0.00529455
0.00367042
-0.00544702
0.00144769
-0.00536166
-0.000195954
-0.00524926
-0.0012562
-0.00531977
-0.00124102
-0.00647239
0.00318518
-0.0100046
0.0135322
-0.0165691
0.0274624
-0.0261508
0.0435571
-0.0374756
0.057376
-0.0467737
0.0568647
-0.0479242
0.0241208
-0.039817
-0.0288602
-0.0289608
-0.0585554
-0.00927441
-0.129641
0.00394514
-0.0583391
-0.00519918
0.135209
0.018907
-0.236457
0.0848387
-0.413504
0.100865
0.0777447
0.0675911
0.20301
0.0305993
0.150446
0.00446744
0.102511
-0.0068853
0.0489405
0.00803446
-0.0761319
0.0343064
-0.12826
0.0407513
-0.025472
0.0463471
-0.0438314
0.0350576
0.014416
-0.0124338
0.178608
-0.0759078
0.296448
-0.11452
0.250635
-0.125369
0.120372
-0.128914
0.0539415
-0.117054
-0.0428786
-0.0774417
-0.235181
-0.0218537
-0.312454
0.00726696
-0.184456
0.0388544
-0.175474
-0.12898
0.0759058
0.0274759
-0.0755872
0.0762289
0.0283148
0.0765634
0.0291695
0.0768845
0.0300675
0.0771232
0.0309233
0.077166
0.0316472
0.0768711
0.0321857
0.0760923
0.0325012
0.074702
0.0325597
0.0726076
0.0323341
0.069762
0.0318083
0.0661692
0.0309756
0.0618864
0.0298384
0.0570219
0.0284102
0.0517274
0.0267189
0.0461828
0.0248087
0.040576
0.0227395
0.0350809
0.0205804
0.0298408
0.0184025
0.02496
0.0162695
0.0205028
0.0142325
0.0165001
0.0123275
0.0129564
0.010576
0.00985765
0.00898794
0.00717789
0.00756445
0.00488436
0.00630105
0.00294073
0.00518924
0.00130982
0.0042183
-4.53096e-05
0.00337724
-0.0011563
0.00265143
-0.00205822
0.00203209
-0.00277904
0.0015057
-0.0033456
0.00106321
-0.003779
0.000689993
-0.00410751
0.000383385
-0.00433925
0.000128455
-0.00449263
-7.95917e-05
-0.00458618
-0.000242724
-0.00462674
-0.000373965
-0.00462559
-0.000472963
-0.0045914
-0.000546968
-0.0045309
-0.000602654
-0.00444988
-0.000642222
-0.00435322
-0.000669049
-0.00424438
-0.000687458
-0.0041269
-0.00069514
-0.00400434
-0.00069071
-0.0038805
-0.000671322
-0.00375996
-0.000632502
-0.00364753
-0.00057233
-0.00354834
-0.000488895
-0.00346679
-0.000385536
-0.00340589
-0.000268422
-0.00336612
-0.000149871
-0.00334399
-4.95592e-05
-0.00332957
3.98653e-06
-0.00330757
-2.62576e-05
-0.00325124
-0.000187068
-0.00312589
-0.000529948
-0.00288916
-0.0010981
-0.00249652