/*--------------------------------*- C++ -*----------------------------------*\
| =========                 |                                                 |
| \\      /  F ield         | OpenFOAM: The Open Source CFD Toolbox           |
|  \\    /   O peration     | Version:  2412                                  |
|   \\  /    A nd           | Website:  www.openfoam.com                      |
|    \\/     M anipulation  |                                                 |
\*---------------------------------------------------------------------------*/
FoamFile
{
    version     2.0;
    format      ascii;
    arch        "LSB;label=32;scalar=64";
    class       surfaceScalarField;
    location    "0.04";
    object      phi_0;
}
// * * * * * * * * * * * * * * * * * * * * * * * * * * * * * * * * * * * * * //

dimensions      [0 3 -1 0 0 0 0];

oriented        oriented;

internalField   nonuniform List<scalar> 
24930
(
0.0139598
0.0102349
-0.0241947
0.00789656
0.00606321
0.00531021
0.00258634
0.00415357
0.00115664
0.00350523
0.000648342
0.00307726
0.000427968
0.00276595
0.000311312
0.00252618
0.000239769
0.00233421
0.000191971
0.00217605
0.000158167
0.0020429
0.000133145
0.0019289
0.000114
0.00182993
9.89724e-05
0.001743
8.69246e-05
0.00166591
7.70917e-05
0.00159697
6.89398e-05
0.00153488
6.20887e-05
0.00147862
5.62621e-05
0.00142737
5.12541e-05
0.00138046
4.69087e-05
0.00133735
4.31064e-05
0.0012976
3.97536e-05
0.00126082
3.67756e-05
0.00122671
3.41136e-05
0.00119499
3.17193e-05
0.00116544
2.95537e-05
0.00113785
2.75847e-05
0.00111207
2.57854e-05
0.00108793
2.41336e-05
0.00106532
2.26102e-05
0.00104412
2.11989e-05
0.00102424
1.98858e-05
0.00100558
1.8659e-05
0.00098807
1.75087e-05
0.000971644
1.64263e-05
0.000956239
1.54042e-05
0.000941805
1.44346e-05
0.000928293
1.35113e-05
0.000915664
1.2629e-05
0.000903881
1.17834e-05
0.000892913
1.09683e-05
0.000882733
1.01802e-05
0.000873318
9.41434e-06
0.00086465
8.66781e-06
0.000856715
7.93537e-06
0.000849505
7.21018e-06
0.000843011
6.49349e-06
0.000837237
5.7744e-06
0.000832179
5.05828e-06
0.000827848
4.33068e-06
0.000824255
3.59318e-06
0.000821416
2.83866e-06
0.000819351
2.06548e-06
0.000818093
1.25733e-06
0.000817675
4.18622e-07
0.000818127
-4.51867e-07
0.000819517
-1.39076e-06
0.000821905
-2.38721e-06
0.000825362
-3.45721e-06
0.000829979
-4.61741e-06
0.000835856
-5.8767e-06
0.000843119
-7.26328e-06
0.000851945
-8.82613e-06
0.000862547
-1.06018e-05
0.000875109
-1.25619e-05
0.00088981
-1.47006e-05
0.000907035
-1.72254e-05
0.000927514
-2.04795e-05
0.000952049
-2.45348e-05
0.000980955
-2.89055e-05
0.00101375
-3.27922e-05
0.0010494
-3.56486e-05
0.0010869
-3.75068e-05
0.00112573
-3.88272e-05
0.00116586
-4.01259e-05
0.00120757
-4.17169e-05
0.00125125
-4.36806e-05
0.00129722
-4.59654e-05
0.00134571
-4.84876e-05
0.00139689
-5.11838e-05
0.00145092
-5.40274e-05
0.00150796
-5.70388e-05
0.00156822
-6.02675e-05
0.00163197
-6.37436e-05
0.00169948
-6.7517e-05
0.00177108
-7.16002e-05
0.00184708
-7.59982e-05
0.00192781
-8.07233e-05
0.0020136
-8.57935e-05
0.00210483
-9.12316e-05
0.00220189
-9.70636e-05
0.00230521
-0.000103319
0.00241524
-0.000110028
0.00253247
-0.000117226
0.00265742
-0.000124951
0.00279066
-0.000133243
0.0029328
-0.000142143
0.00308451
-0.000151703
0.00324648
-0.000161969
0.00341947
-0.000172998
0.00360433
-0.000184852
0.00380192
-0.000197594
0.00401321
-0.000211292
0.00423924
-0.000226026
0.00448111
-0.000241875
0.00474004
-0.000258921
0.00501732
-0.000277281
0.00531433
-0.000297009
0.00563264
-0.000318312
0.00597377
-0.000341129
0.00633965
-0.000365883
0.00673188
-0.000392232
0.00715289
-0.000421009
0.0076042
-0.00045131
0.00808909
-0.00048489
0.00860669
-0.000517603
0.00916867
-0.000561978
0.00974331
-0.000574636
0.0104018
-0.000658532
-0.00057816
0.0289169
0.012996
-0.031678
0.0236793
0.0113009
0.0188142
0.00745144
0.0153376
0.00463325
0.0130142
0.00297168
0.0114073
0.00203491
0.0102322
0.00148642
0.00932969
0.00114228
0.00860931
0.000912346
0.00801714
0.000750333
0.00751939
0.000630898
0.00709367
0.000539723
0.00672442
0.000468222
0.00640042
0.000410924
0.00611334
0.000364176
0.00585684
0.000325439
0.00562602
0.000292902
0.00541704
0.000265247
0.0052268
0.000241492
0.00505281
0.000220894
0.00489304
0.000202881
0.00474579
0.000187007
0.00460964
0.000172917
0.00448343
0.000160329
0.00436613
0.000149015
0.0042569
0.000138788
0.00415499
0.000129495
0.00405977
0.000121009
0.00397068
0.000113222
0.00388724
0.000106046
0.00380904
9.94013e-05
0.0037357
9.32233e-05
0.00366691
8.7455e-05
0.00360237
8.2049e-05
0.00354183
7.69647e-05
0.00348507
7.21656e-05
0.00343188
6.76164e-05
0.00338211
6.32868e-05
0.00333559
5.91517e-05
0.00329218
5.51901e-05
0.00325177
5.13746e-05
0.00321427
4.76869e-05
0.00317957
4.41074e-05
0.00314762
4.06184e-05
0.00311837
3.71928e-05
0.00309177
3.38076e-05
0.0030678
3.04591e-05
0.00304647
2.71074e-05
0.00302776
2.37648e-05
0.00301172
2.03757e-05
0.00299837
1.69376e-05
0.00298779
1.34221e-05
0.00298004
9.81605e-06
0.00297524
6.05574e-06
0.00297351
2.14621e-06
0.00297499
-1.92404e-06
0.00297989
-6.29332e-06
0.00298845
-1.09502e-05
0.00300096
-1.59613e-05
0.00301774
-2.13982e-05
0.00303918
-2.7318e-05
0.00306577
-3.38604e-05
0.00309819
-4.1244e-05
0.0031372
-4.96123e-05
0.00318349
-5.88502e-05
0.00323786
-6.90674e-05
0.00330185
-8.12185e-05
0.00337795
-9.65821e-05
0.00346852
-0.000115105
0.0035741
-0.000134481
0.00369269
-0.000151387
0.00382084
-0.000163794
0.00395543
-0.000172096
0.00409494
-0.000178339
0.00423948
-0.000184668
0.00439009
-0.000192324
0.004548
-0.000201587
0.00471425
-0.000212216
0.00488962
-0.000223863
0.00507472
-0.000236285
0.0052701
-0.000249405
0.0054764
-0.000263337
0.00569441
-0.000278285
0.00592507
-0.000294401
0.00616942
-0.000311868
0.00642856
-0.000330738
0.00670361
-0.000351044
0.00699573
-0.000372845
0.00730616
-0.000396228
0.00763623
-0.000421299
0.00798734
-0.000448177
0.00836102
-0.000476993
0.00875888
-0.000507892
0.00918268
-0.000541026
0.00963431
-0.00057658
0.0101158
-0.000614715
0.0106293
-0.000655644
0.0111772
-0.00069957
0.0117619
-0.000746728
0.0123863
-0.000797372
0.0130532
-0.000851774
0.0137658
-0.000910206
0.0145275
-0.000973004
0.015342
-0.00104048
0.0162131
-0.00111303
0.0171452
-0.00119101
0.0181429
-0.00127491
0.0192109
-0.00136505
0.0203547
-0.00146214
0.0215799
-0.00156633
0.0228928
-0.00167878
0.0242997
-0.00179915
0.025808
-0.00192922
0.0274245
-0.00206785
0.0291585
-0.00221891
0.0310099
-0.00236904
0.0330177
-0.00256976
0.0350722
-0.0026291
0.0374412
-0.00302759
-0.0026581
0.0367893
0.0121917
-0.0359849
0.0348359
0.0132542
0.0310944
0.011193
0.02722
0.00850764
0.0239186
0.00627311
0.0212918
0.00466166
0.0192285
0.00354977
0.0175885
0.00278227
0.0162573
0.00224356
0.015153
0.00185461
0.0142195
0.00156439
0.0134179
0.0013413
0.0127207
0.00116546
0.0121076
0.001024
0.0115636
0.000908217
0.011077
0.000812043
0.0106387
0.000731112
0.0102418
0.000662229
0.00988026
0.000602997
0.00954956
0.000551594
0.00924583
0.000506616
0.00896588
0.00046696
0.00870704
0.000431752
0.00846708
0.00040029
0.00824409
0.000372009
0.00803643
0.000346444
0.00784271
0.000323214
0.00766172
0.000302002
0.0074924
0.000282541
0.00733384
0.000264607
0.00718523
0.000248007
0.00704588
0.000232575
0.00691516
0.000218169
0.00679254
0.000204672
0.00667753
0.00019198
0.00656969
0.000180002
0.00646865
0.000168652
0.00637409
0.000157854
0.0062857
0.000147543
0.00620322
0.000137667
0.00612643
0.00012816
0.00605514
0.000118975
0.00598919
0.000110061
0.00592843
0.000101375
0.00587278
9.28503e-05
0.00582215
8.4433e-05
0.0057765
7.61057e-05
0.00573583
6.77824e-05
0.00570012
5.94736e-05
0.00566943
5.10623e-05
0.00564385
4.25254e-05
0.00562347
3.38004e-05
0.00560844
2.48463e-05
0.00559897
1.55192e-05
0.00559529
5.82628e-06
0.00559767
-4.30005e-06
0.00560653
-1.51548e-05
0.00562231
-2.67241e-05
0.00564554
-3.91925e-05
0.00567687
-5.27323e-05
0.00571705
-6.75019e-05
0.00576706
-8.38622e-05
0.00582814
-0.000102332
0.00590175
-0.000123214
0.00598921
-0.000146312
0.00609221
-0.000172071
0.00621376
-0.000202763
0.0063582
-0.000241023
0.00652925
-0.000286157
0.00672724
-0.000332477
0.0069483
-0.000372445
0.00718634
-0.000401829
0.00743618
-0.000421936
0.00769547
-0.000437636
0.00796461
-0.000453803
0.00824546
-0.000473171
0.00854016
-0.000496289
0.00885051
-0.000522567
0.00917787
-0.000551221
0.00952331
-0.00058173
0.00988789
-0.000613981
0.0102728
-0.000648273
0.0106796
-0.00068508
0.01111
-0.000724771
0.0115659
-0.000767734
0.0120492
-0.00081409
0.0125621
-0.00086393
0.0131067
-0.000917405
0.0136852
-0.000974724
0.0143
-0.00103614
0.0149538
-0.00110195
0.0156492
-0.00117247
0.0163894
-0.00124803
0.0171774
-0.00132901
0.0180166
-0.00141583
0.0189108
-0.0015089
0.0198638
-0.00160869
0.02088
-0.00171572
0.0219638
-0.00183051
0.0231201
-0.00195367
0.0243541
-0.00208582
0.0256715
-0.00222763
0.0270784
-0.00237984
0.0285811
-0.00254321
0.0301867
-0.0027186
0.0319025
-0.00290688
0.0337367
-0.00310909
0.0356978
-0.00332612
0.0377949
-0.00355926
0.0400379
-0.00380935
0.0424373
-0.00407812
0.0450043
-0.00436619
0.0477504
-0.00467534
0.0506888
-0.00500617
0.0538332
-0.00536336
0.0571838
-0.0057196
0.0608114
-0.00619736
0.064514
-0.0063317
0.0687919
-0.00730553
-0.00643713
0.0411965
0.0104186
-0.0394234
0.0417416
0.012709
0.0403089
0.0126257
0.0376733
0.0111433
0.0346645
0.00928188
0.0317774
0.00754875
0.0292155
0.00611169
0.0270135
0.00498428
0.0251365
0.00412059
0.0235317
0.00345939
0.0221482
0.00294791
0.0209439
0.00254561
0.0198858
0.00222355
0.0189484
0.00196143
0.0181116
0.00174497
0.0173598
0.00156389
0.0166802
0.00141064
0.0160629
0.0012796
0.0154994
0.0011665
0.0149829
0.00106805
0.0145078
0.000981693
0.0140694
0.000905397
0.0136636
0.00083754
0.0132871
0.00077682
0.0129369
0.00072217
0.0126106
0.000672721
0.0123061
0.000627752
0.0120214
0.00058666
0.011755
0.00054894
0.0115055
0.000514163
0.0112715
0.00048196
0.0110521
0.000452016
0.0108462
0.000424059
0.010653
0.000397859
0.0104718
0.000373218
0.0103018
0.000349962
0.0101425
0.000327925
0.00999344
0.000306959
0.00985404
0.000286942
0.00972394
0.00026777
0.00960278
0.000249318
0.00949026
0.000231494
0.00938613
0.000214197
0.00929016
0.000197343
0.0092022
0.000180808
0.00912214
0.000164494
0.00904989
0.000148351
0.00898545
0.000132231
0.00892878
0.000116137
0.00887999
9.98564e-05
0.00883918
8.3334e-05
0.00880653
6.64524e-05
0.00878225
4.91221e-05
0.00876667
3.10978e-05
0.00876015
1.23514e-05
0.00876311
-7.25707e-06
0.00877619
-2.82405e-05
0.0088001
-5.06371e-05
0.0088357
-7.47878e-05
0.00888399
-0.000101026
0.00894618
-0.000129689
0.0090238
-0.000161482
0.00911885
-0.00019738
0.00923353
-0.000237894
0.00937
-0.000282787
0.00953106
-0.000333132
0.00972137
-0.000393071
0.00994724
-0.00046689
0.0102136
-0.000552545
0.0105204
-0.000639275
0.0108616
-0.000713626
0.0112283
-0.000768532
0.0116133
-0.000806879
0.0120133
-0.000837661
0.0124291
-0.00086963
0.0128635
-0.000907571
0.0133196
-0.000952364
0.0137999
-0.0010029
0.0143065
-0.00105778
0.0148409
-0.00111613
0.0154047
-0.00117783
0.0159999
-0.00124346
0.0166287
-0.00131391
0.0172938
-0.00138986
0.0179981
-0.00147196
0.0187444
-0.00156045
0.019536
-0.00165548
0.0203759
-0.00175736
0.0212677
-0.00186647
0.0222148
-0.0019833
0.0232212
-0.00210836
0.024291
-0.00224225
0.0254286
-0.00238558
0.0266386
-0.00253904
0.0279261
-0.00270337
0.0292966
-0.00287935
0.0307557
-0.0030678
0.0323097
-0.00326967
0.033965
-0.00348587
0.0357288
-0.00371749
0.0376087
-0.00396563
0.0396125
-0.00423147
0.0417489
-0.00451628
0.0440272
-0.00482141
0.0464569
-0.00514832
0.0490485
-0.0054985
0.051813
-0.00587364
0.0547623
-0.00627541
0.0579087
-0.00670565
0.0612656
-0.00716621
0.0648465
-0.00765903
0.0686669
-0.00818662
0.0727408
-0.00874919
0.077086
-0.00935139
0.0817196
-0.00999694
0.0866375
-0.0106375
0.0919471
-0.011507
0.097342
-0.0117266
0.103558
-0.013522
-0.0119921
0.0443905
0.00887935
-0.0428513
0.045923
0.0111766
0.0463104
0.0122383
0.0454173
0.0120363
0.0436302
0.011069
0.041395
0.00978396
0.0390416
0.00846504
0.0367647
0.00726117
0.0346567
0.00622866
0.0327458
0.00537027
0.0310292
0.00466454
0.0294899
0.00408483
0.0281076
0.00360594
0.026862
0.00320702
0.0257353
0.0028716
0.0247123
0.00258694
0.0237797
0.0023432
0.0229265
0.00213279
0.0221433
0.00194973
0.021422
0.00178934
0.0207559
0.00164785
0.020139
0.00152226
0.0195664
0.00141011
0.0190338
0.00130942
0.0185375
0.00121852
0.0180741
0.00113606
0.017641
0.00106091
0.0172355
0.000992105
0.0168556
0.000928842
0.0164994
0.000870429
0.0161651
0.000816274
0.0158512
0.000765862
0.0155565
0.000718752
0.0152798
0.000674564
0.0150201
0.000632976
0.0147763
0.000593699
0.0145478
0.00055646
0.0143337
0.000521018
0.0141335
0.000487167
0.0139465
0.000454734
0.0137723
0.000423513
0.0136105
0.000393351
0.0134606
0.000364077
0.0133224
0.000335553
0.0131956
0.000307572
0.0130801
0.000279974
0.0129758
0.000252666
0.0128827
0.000225407
0.0128006
0.000198189
0.0127298
0.000170675
0.0126704
0.000142756
0.0126226
0.000114231
0.0125868
8.49536e-05
0.0125633
5.45296e-05
0.0125528
2.28651e-05
0.0125558
-1.02887e-05
0.0125733
-4.57112e-05
0.0126062
-8.35371e-05
0.0126558
-0.000124349
0.0127234
-0.000168707
0.012811
-0.00021721
0.0129205
-0.000271052
0.013055
-0.000331815
0.0132174
-0.000400316
0.013411
-0.000476368
0.0136398
-0.000561969
0.0139104
-0.000663649
0.014231
-0.000787509
0.0146078
-0.000929324
0.01504
-0.00107151
0.0155194
-0.00119302
0.0160343
-0.00128337
0.0165751
-0.0013477
0.0171379
-0.00140048
0.0177237
-0.00145548
0.0183363
-0.00152013
0.0189797
-0.00159572
0.0196572
-0.00168044
0.0203715
-0.00177212
0.0211248
-0.00186943
0.0219193
-0.0019723
0.0227576
-0.00208172
0.0236428
-0.00219913
0.0245785
-0.00232561
0.0255687
-0.00246214
0.0266174
-0.00260909
0.0277286
-0.00276674
0.0289068
-0.00293556
0.0301565
-0.00311617
0.0314826
-0.00330933
0.0328901
-0.00351586
0.0343845
-0.00373668
0.0359717
-0.00397277
0.0376578
-0.00422519
0.0394495
-0.00449509
0.0413538
-0.00478361
0.0433781
-0.00509214
0.0455304
-0.00542196
0.0478191
-0.00577458
0.0502532
-0.00615155
0.0528421
-0.00655453
0.0555958
-0.00698523
0.0585251
-0.00744553
0.0616411
-0.00793739
0.0649556
-0.00846283
0.0684811
-0.00902402
0.0722307
-0.00962322
0.0762181
-0.0102628
0.0804576
-0.0109451
0.0849644
-0.011673
0.0897533
-0.0124479
0.0948418
-0.0132751
0.100244
-0.0141511
0.105979
-0.0150867
0.112065
-0.0160829
0.118489
-0.0170614
0.125392
-0.01841
0.13237
-0.0187042
0.140343
-0.0214955
-0.019225
0.0475083
0.00777332
-0.0464023
0.0490538
0.00963111
0.0502763
0.0110158
0.0506936
0.0116191
0.0502511
0.0115115
0.049127
0.010908
0.0475603
0.0100318
0.0457629
0.00905853
0.0438895
0.00810206
0.0420378
0.00722199
0.0402619
0.00644043
0.0385882
0.00575849
0.0370265
0.00516773
0.0355764
0.00465705
0.0342331
0.00421487
0.0329895
0.00383058
0.0318377
0.00349502
0.0307699
0.00320053
0.0297789
0.00294076
0.0288578
0.00271045
0.0280004
0.00250524
0.0272012
0.00232152
0.026455
0.00215625
0.0257575
0.0020069
0.0251047
0.00187133
0.024493
0.00174775
0.0239193
0.00163463
0.0233807
0.00153067
0.0228748
0.00143477
0.0223993
0.00134595
0.0219522
0.0012634
0.0215317
0.00118637
0.0211362
0.00111424
0.0207643
0.00104646
0.0204147
0.000982557
0.0200863
0.000922115
0.019778
0.000864737
0.0194889
0.000810063
0.0192183
0.000757791
0.0189654
0.000707661
0.0187295
0.00065937
0.0185102
0.000612685
0.0183069
0.000567351
0.0181193
0.000523156
0.0179471
0.000479801
0.01779
0.000437029
0.017648
0.000394701
0.017521
0.000352452
0.0174089
0.000310259
0.0173119
0.000267621
0.0172303
0.000224357
0.0171644
0.000180159
0.0171146
0.000134795
0.0170814
8.76815e-05
0.0170657
3.86238e-05
0.0170681
-1.27664e-05
0.01709
-6.76097e-05
0.0171327
-0.000126189
0.0171978
-0.000189409
0.0172872
-0.000258134
0.0174033
-0.000333336
0.0175491
-0.000416832
0.0177283
-0.000510987
0.017945
-0.000617049
0.0182036
-0.000735005
0.0185097
-0.000868069
0.0188717
-0.00102559
0.0192997
-0.00121558
0.0198012
-0.00143079
0.0203748
-0.00164514
0.0210101
-0.0018283
0.0216925
-0.00196572
0.0224102
-0.00206539
0.0231582
-0.00214852
0.0239379
-0.00223511
0.0247536
-0.0023359
0.0256106
-0.00245267
0.0265129
-0.00258279
0.0274639
-0.00272309
0.0284662
-0.00287175
0.0295227
-0.00302877
0.0306366
-0.00319567
0.0318121
-0.00337457
0.0330536
-0.0035671
0.034366
-0.00377461
0.0357546
-0.00399762
0.0372243
-0.00423653
0.0387808
-0.00449203
0.0404296
-0.00476498
0.0421767
-0.00505646
0.0440285
-0.00536764
0.0459917
-0.00569981
0.0480732
-0.00605432
0.0502807
-0.00643264
0.0526219
-0.00683637
0.0551054
-0.00726708
0.0577398
-0.00772656
0.0605345
-0.00821666
0.0634993
-0.0087393
0.0666442
-0.00929653
0.0699802
-0.0098905
0.0735184
-0.0105234
0.0772706
-0.0111977
0.0812489
-0.0119157
0.085466
-0.0126799
0.0899351
-0.0134931
0.0946695
-0.0143577
0.0996833
-0.0152766
0.10499
-0.0162521
0.110606
-0.0172882
0.116542
-0.0183846
0.122817
-0.0195502
0.129441
-0.0207746
0.136432
-0.022078
0.143804
-0.0234551
0.151534
-0.0247908
0.159782
-0.0266586
0.168084
-0.0270054
0.17743
-0.0308422
-0.0278562
0.0509167
0.00695751
-0.0501009
0.0521642
0.00838356
0.0535037
0.00967636
0.054535
0.0105878
0.0550199
0.0110267
0.0549118
0.0110161
0.0542872
0.0106564
0.0532727
0.010073
0.0519971
0.00937767
0.0505678
0.00865123
0.0490652
0.00794302
0.0475451
0.00727866
0.0460439
0.0066689
0.0445853
0.00611565
0.043183
0.00561714
0.0418444
0.00516921
0.0405725
0.00476691
0.0393678
0.00440524
0.0382291
0.00407948
0.0371541
0.00378539
0.0361402
0.00351921
0.0351841
0.0032776
0.0342827
0.00305764
0.0334328
0.00285677
0.0326314
0.00267275
0.0318755
0.00250362
0.0311625
0.00234769
0.0304897
0.00220347
0.0298548
0.00206966
0.0292556
0.0019451
0.0286902
0.00182879
0.0281568
0.00171983
0.0276536
0.00161741
0.0271792
0.00152085
0.0267322
0.00142953
0.0263114
0.00134293
0.0259156
0.00126051
0.0255439
0.0011818
0.0251953
0.00110641
0.024869
0.00103396
0.0245643
0.000964073
0.0242806
0.000896411
0.0240173
0.000830624
0.023774
0.000766427
0.0235504
0.000703398
0.0233463
0.000641181
0.0231614
0.000579569
0.0229958
0.000518052
0.0228495
0.00045658
0.0227226
0.000394462
0.0226156
0.000331422
0.0225287
0.000267012
0.0224626
0.000200897
0.022418
0.000132248
0.0223959
6.07457e-05
0.0223973
-1.41834e-05
0.0224238
-9.40734e-05
0.022477
-0.000179408
0.0225591
-0.000271509
0.0226726
-0.000371636
0.0228205
-0.000481237
0.0230066
-0.000602909
0.0232356
-0.000739967
0.0235128
-0.00089426
0.0238439
-0.0010661
0.024236
-0.00126014
0.0246993
-0.0014889
0.025246
-0.00176234
0.0258848
-0.00206953
0.026614
-0.00237432
0.0274212
-0.00263553
0.0282891
-0.00283366
0.0292036
-0.00297992
0.0301585
-0.00310338
0.0311549
-0.00323151
0.032198
-0.00337905
0.0332939
-0.00354855
0.0344475
-0.0037364
0.0356627
-0.00393827
0.0369427
-0.0041517
0.0382907
-0.00437678
0.0397107
-0.0046157
0.0412076
-0.00487141
0.0427866
-0.00514618
0.0444538
-0.00544183
0.0462152
-0.00575901
0.048077
-0.00609826
0.0500454
-0.00646044
0.0521271
-0.0068467
0.0543291
-0.00725841
0.0566585
-0.00769709
0.0591231
-0.00816437
0.0617307
-0.008662
0.0644899
-0.00919182
0.0674093
-0.00975579
0.0704981
-0.0103559
0.0737659
-0.0109943
0.0772225
-0.0116733
0.0808783
-0.012395
0.0847437
-0.013162
0.08883
-0.0139767
0.0931482
-0.0148416
0.0977099
-0.0157594
0.102527
-0.0167326
0.107611
-0.017764
0.112974
-0.0188562
0.118628
-0.0200118
0.124585
-0.0212339
0.130857
-0.0225238
0.137456
-0.0238867
0.14439
-0.0253187
0.151674
-0.0268341
0.15931
-0.0284114
0.167317
-0.0300845
0.175698
-0.0318357
0.184422
-0.0335151
0.193648
-0.035885
0.202912
-0.0362696
0.213133
-0.0410624
-0.0374877
0.0546481
0.00629888
-0.0539894
0.0556157
0.00741591
0.0567823
0.00850977
0.0579307
0.00943935
0.0588409
0.0101165
0.0593771
0.0104799
0.0594998
0.0105337
0.0592384
0.0103344
0.0586576
0.00995845
0.0578313
0.00947751
0.0568279
0.00894642
0.0557043
0.00840227
0.0545054
0.00786786
0.0532651
0.00735593
0.0520094
0.0068728
0.0507577
0.00642092
0.0495239
0.00600071
0.048318
0.0056112
0.0471467
0.00525072
0.0460148
0.00491729
0.0449252
0.00460887
0.0438793
0.00432344
0.0428779
0.00405903
0.0419209
0.00381381
0.0410076
0.00358604
0.0401371
0.0033741
0.0393083
0.00317653
0.0385198
0.00299198
0.0377702
0.0028192
0.0370582
0.00265709
0.0363824
0.00250461
0.0357414
0.00236083
0.035134
0.00222488
0.0345588
0.002096
0.0340148
0.00197353
0.0335009
0.00185685
0.033016
0.00174537
0.0325593
0.00163852
0.0321299
0.00153581
0.031727
0.00143683
0.03135
0.00134107
0.0309983
0.00124814
0.0306713
0.00115758
0.0303687
0.00106904
0.0300902
0.000981974
0.0298354
0.000895911
0.0296044
0.000810568
0.0293972
0.000725274
0.0292138
0.000639952
0.0290546
0.000553691
0.0289199
0.000466098
0.0288104
0.000376558
0.0287267
0.000284615
0.0286698
0.000189149
0.0286408
8.96647e-05
0.0286413
-1.46191e-05
0.0286729
-0.000125714
0.0287379
-0.000244387
0.0288388
-0.000372453
0.0289789
-0.000511672
0.0291617
-0.00066408
0.029392
-0.000833179
0.0296755
-0.00102343
0.0300187
-0.00123747
0.0304287
-0.0014761
0.0309141
-0.00174559
0.031487
-0.00206176
0.0321613
-0.00243666
0.032947
-0.00285521
0.0338427
-0.00327006
0.0348348
-0.00362759
0.0359034
-0.00390231
0.0370321
-0.00410856
0.0382128
-0.00428413
0.0394464
-0.00446508
0.0407385
-0.00467112
0.0420958
-0.00490587
0.0435241
-0.00516469
0.0450277
-0.00544189
0.0466102
-0.00573419
0.0482752
-0.00604175
0.050027
-0.0063675
0.051871
-0.00671541
0.0538133
-0.00708853
0.0558607
-0.00748919
0.0580199
-0.00791821
0.0602978
-0.0083762
0.0627015
-0.00886416
0.0652383
-0.00938346
0.0679156
-0.00993574
0.0707413
-0.0105228
0.0737235
-0.0111465
0.0768705
-0.011809
0.080191
-0.0125124
0.0836941
-0.0132588
0.0873888
-0.0140506
0.0912847
-0.0148902
0.0953913
-0.0157799
0.0997185
-0.0167222
0.104276
-0.0177197
0.109074
-0.0187749
0.114123
-0.0198902
0.119432
-0.0210683
0.125011
-0.0223116
0.130869
-0.0236226
0.137017
-0.0250038
0.143462
-0.0264569
0.150213
-0.0279852
0.157278
-0.0295881
0.164663
-0.0312723
0.172373
-0.0330289
0.180418
-0.0348789
0.188793
-0.0367861
0.197511
-0.038803
0.206568
-0.0408921
0.215934
-0.0428811
0.225739
-0.0456905
0.235593
-0.0461231
0.246212
-0.0516814
-0.0477276
0.0586734
0.00573115
-0.0581056
0.0594514
0.00663785
0.0604129
0.00754829
0.0614631
0.00838914
0.062465
0.00911459
0.0632886
0.0096563
0.0638511
0.00997121
0.0641225
0.010063
0.0641124
0.00996848
0.0638535
0.00973641
0.0633867
0.0094132
0.0627528
0.00903622
0.061988
0.00863261
0.0611233
0.00822063
0.0601843
0.00781181
0.0591922
0.00741308
0.0581649
0.00702796
0.0571174
0.00665876
0.0560617
0.00630643
0.0550077
0.00597122
0.0539636
0.00565299
0.0529358
0.00535129
0.0519293
0.00506553
0.050948
0.00479505
0.049995
0.00453907
0.0490723
0.00429681
0.0481814
0.00406744
0.0473232
0.00385014
0.0464983
0.0036441
0.0457069
0.0034485
0.0449489
0.00326256
0.0442242
0.00308552
0.0435325
0.00291664
0.0428732
0.00275525
0.042246
0.00260074
0.0416503
0.00245255
0.0410856
0.00231007
0.0405514
0.00217274
0.0400472
0.00204005
0.0395724
0.00191157
0.0391268
0.00178673
0.0387098
0.00166511
0.0383212
0.00154617
0.0379607
0.00142951
0.0376283
0.00131447
0.0373237
0.00120048
0.0370471
0.0010872
0.0367986
0.000973752
0.0365784
0.000860075
0.0363871
0.000744998
0.0362252
0.000628008
0.0360935
0.00050829
0.0359928
0.000385272
0.0359245
0.000257479
0.03589
0.00012421
0.0358909
-1.55594e-05
0.0359295
-0.000164351
0.0360085
-0.000323313
0.0361308
-0.00049483
0.0363004
-0.000681257
0.0365217
-0.000885321
0.0368
-0.00111155
0.0371423
-0.00136572
0.0375563
-0.00165147
0.0380505
-0.00197029
0.038635
-0.00233006
0.0393232
-0.00274994
0.0401307
-0.00324417
0.0410689
-0.00379349
0.0421376
-0.00433872
0.0433225
-0.00481248
0.0446021
-0.0051819
0.0459574
-0.00546384
0.0473784
-0.0057052
0.048865
-0.00595164
0.0504227
-0.00622881
0.0520588
-0.00654198
0.0537797
-0.00688559
0.0555901
-0.0072523
0.0574937
-0.0076378
0.0594942
-0.00804218
0.0615958
-0.00846916
0.0638043
-0.0089239
0.0661262
-0.00941039
0.0685686
-0.0099316
0.0711388
-0.0104885
0.0738443
-0.0110816
0.0766922
-0.0117121
0.0796902
-0.0123814
0.0828459
-0.0130914
0.086167
-0.0138439
0.0896616
-0.0146412
0.0933379
-0.0154853
0.097204
-0.0163785
0.101268
-0.0173232
0.10554
-0.0183218
0.110026
-0.0193764
0.114736
-0.0204897
0.119677
-0.0216639
0.124859
-0.0229013
0.130288
-0.0242044
0.135974
-0.0255753
0.141921
-0.0270161
0.148139
-0.0285289
0.154632
-0.0301156
0.161406
-0.0317781
0.168466
-0.0335172
0.175817
-0.0353362
0.183461
-0.037232
0.191403
-0.0392137
0.199639
-0.0412656
0.208179
-0.0434184
0.21701
-0.0456174
0.226148
-0.0479405
0.235576
-0.0503206
0.245281
-0.0525856
0.255348
-0.0557583
0.265508
-0.0562824
0.276217
-0.0623907
-0.0583189
0.0629884
0.00522455
-0.0624817
0.0636455
0.00598073
0.0644474
0.00674636
0.0653569
0.00747965
0.0663032
0.00816828
0.0671948
0.00876472
0.067951
0.00921498
0.06852
0.00949401
0.0688809
0.00960764
0.0690364
0.0095809
0.0690037
0.00944591
0.068806
0.00923394
0.0684672
0.0089714
0.0680093
0.00867854
0.0674514
0.0083697
0.06681
0.0080544
0.0660995
0.00773854
0.0653326
0.00742564
0.0645212
0.00711781
0.0636759
0.00681654
0.0628061
0.00652279
0.0619203
0.00623709
0.0610261
0.00595974
0.0601301
0.00569098
0.0592383
0.0054309
0.0583556
0.00517952
0.0574862
0.0049368
0.0566338
0.00470262
0.0558011
0.00447677
0.0549906
0.00425899
0.0542042
0.00404896
0.0534434
0.0038463
0.0527095
0.00365059
0.0520033
0.00346143
0.0513256
0.00327844
0.0506769
0.00310122
0.0500577
0.00292934
0.0494681
0.00276231
0.0489085
0.0025997
0.0483789
0.00244116
0.0478795
0.00228614
0.0474103
0.00213424
0.0469716
0.00198489
0.0465634
0.00183771
0.0461859
0.00169196
0.0458394
0.00154698
0.0455242
0.00140238
0.0452408
0.00125713
0.0449897
0.00111117
0.0447716
0.000963086
0.0445874
0.000812229
0.0444381
0.000657575
0.044325
0.000498437
0.0442495
0.000332955
0.0442135
0.000160182
0.0442192
-2.1185e-05
0.044269
-0.000214163
0.0443661
-0.000420412
0.0445142
-0.000642917
0.0447176
-0.000884726
0.0449817
-0.00114936
0.0453126
-0.00144244
0.045718
-0.00177118
0.046207
-0.00214049
0.0467895
-0.00255273
0.0474767
-0.0030173
0.0482832
-0.00355644
0.0492257
-0.0041867
0.0503174
-0.00488514
0.0515594
-0.00558077
0.0529385
-0.00619155
0.0544323
-0.00667568
0.0560197
-0.00705126
0.0576885
-0.00737402
0.0594368
-0.00769989
0.0612695
-0.00806149
0.063194
-0.00846656
0.0652173
-0.00890884
0.0673442
-0.0093792
0.0695783
-0.00987192
0.0719229
-0.0103867
0.0743819
-0.0109282
0.0769607
-0.0115027
0.0796657
-0.0121154
0.0825043
-0.0127702
0.0854838
-0.013468
0.0886117
-0.0142095
0.091895
-0.0149955
0.0953411
-0.0158276
0.0989572
-0.0167075
0.102751
-0.0176373
0.106728
-0.018619
0.110898
-0.0196549
0.115267
-0.0207471
0.119841
-0.0218979
0.124629
-0.0231093
0.129636
-0.0243837
0.134869
-0.025723
0.140335
-0.0271294
0.146038
-0.0286048
0.151985
-0.0301511
0.15818
-0.0317699
0.164627
-0.033463
0.171329
-0.0352317
0.178291
-0.0370772
0.185514
-0.0390012
0.193
-0.0410032
0.200751
-0.043087
0.208766
-0.0452472
0.217048
-0.0474959
0.225593
-0.0498107
0.234409
-0.0522343
0.243483
-0.054691
0.252834
-0.0572912
0.262442
-0.059929
0.272313
-0.0624568
0.282495
-0.0659404
0.292842
-0.0666292
0.303571
-0.0731197
-0.0692028
0.0676092
0.00476308
-0.0671477
0.0681853
0.00540458
0.0688741
0.00605753
0.0696613
0.00669247
0.070513
0.00731656
0.0713747
0.00790306
0.0721835
0.00840615
0.0728871
0.00879042
0.0734519
0.00904284
0.0738638
0.00916899
0.074124
0.00918575
0.074243
0.00911494
0.0742356
0.00897885
0.0741168
0.00879728
0.0739005
0.00858605
0.0735981
0.00835676
0.0732194
0.00811723
0.0727727
0.00787239
0.0722652
0.0076253
0.0717043
0.00737736
0.0710972
0.00712993
0.0704506
0.00688371
0.0697711
0.00663926
0.0690651
0.00639698
0.0683388
0.00615716
0.0675982
0.00592015
0.0668487
0.00568625
0.0660956
0.00545578
0.0653434
0.00522899
0.0645962
0.0050061
0.063858
0.00478725
0.0631318
0.00457247
0.0624206
0.00436175
0.061727
0.00415505
0.0610531
0.00395231
0.0604009
0.00375345
0.059772
0.00355826
0.0591678
0.00336647
0.0585897
0.00317784
0.0580387
0.00299218
0.0575158
0.00280905
0.0570218
0.00262815
0.0565578
0.00244896
0.0561243
0.00227118
0.0557222
0.00209404
0.0553524
0.00191683
0.0550156
0.00173921
0.0547128
0.00155994
0.0544449
0.00137906
0.0542131
0.00119489
0.0540186
0.00100669
0.053863
0.000813204
0.0537477
0.000613667
0.0536749
0.000405788
0.0536467
0.000188372
0.0536657
-4.01502e-05
0.0537349
-0.000283356
0.0538579
-0.000543445
0.054039
-0.000824045
0.0542833
-0.00112897
0.0545965
-0.00146261
0.0549858
-0.00183172
0.0554596
-0.00224501
0.056028
-0.00270888
0.0567021
-0.00322678
0.0574942
-0.0038094
0.0584194
-0.00448162
0.059495
-0.00526231
0.0607356
-0.00612573
0.0621448
-0.00699003
0.0637115
-0.00775826
0.065414
-0.00837815
0.0672299
-0.00886716
0.0691446
-0.0092887
0.0711537
-0.00970906
0.073261
-0.0101688
0.0754734
-0.010679
0.077798
-0.0112334
0.0802398
-0.0118209
0.0828018
-0.012434
0.0854867
-0.0130716
0.0882973
-0.0137388
0.0912381
-0.0144435
0.094315
-0.0151923
0.0975348
-0.01599
0.100905
-0.0168379
0.104431
-0.0177362
0.108122
-0.0186859
0.111982
-0.0196881
0.11602
-0.0207446
0.120239
-0.021857
0.124648
-0.0230275
0.129251
-0.0242579
0.134054
-0.0255503
0.139063
-0.0269066
0.144282
-0.0283286
0.149716
-0.0298181
0.15537
-0.031377
0.161248
-0.0330067
0.167352
-0.0347088
0.173685
-0.0364848
0.180251
-0.0383358
0.187051
-0.0402631
0.194087
-0.0422677
0.201361
-0.0443504
0.208872
-0.0465129
0.216623
-0.0487541
0.224615
-0.0510789
0.232848
-0.0534801
0.241327
-0.0559745
0.250048
-0.0585322
0.259025
-0.0612116
0.268248
-0.0639136
0.277744
-0.0667868
0.287495
-0.06968
0.297526
-0.0724879
0.307859
-0.0762739
0.318448
-0.0772179
0.329331
-0.0840023
-0.0804864
0.0725581
0.00433611
-0.0721311
0.0730764
0.00488623
0.0736847
0.00544931
0.0743771
0.00600006
0.0751385
0.00655508
0.0759386
0.00710304
0.0767346
0.00761015
0.0774825
0.0080425
0.0781465
0.00837878
0.0787039
0.00861168
0.0791448
0.00874479
0.0794705
0.00878926
0.0796889
0.00876049
0.0798109
0.00867523
0.0798479
0.00854905
0.0798097
0.00839493
0.0797043
0.00822269
0.0795375
0.00803916
0.079314
0.00784877
0.0790373
0.00765406
0.0787108
0.00745646
0.0783381
0.00725647
0.0779227
0.00705464