/*--------------------------------*- C++ -*----------------------------------*\
| =========                 |                                                 |
| \\      /  F ield         | OpenFOAM: The Open Source CFD Toolbox           |
|  \\    /   O peration     | Version:  2412                                  |
|   \\  /    A nd           | Website:  www.openfoam.com                      |
|    \\/     M anipulation  |                                                 |
\*---------------------------------------------------------------------------*/
FoamFile
{
    version     2.0;
    format      ascii;
    arch        "LSB;label=32;scalar=64";
    class       volVectorField;
    location    "0.13";
    object      ddt0(U);
}
// * * * * * * * * * * * * * * * * * * * * * * * * * * * * * * * * * * * * * //

dimensions      [0 1 -2 0 0 0 0];

internalField   nonuniform List<vector> 
12600
(
(-169.25 0 -64.928)
(12.8391 -3.00929e-18 -16.9002)
(39.0873 -2.70261e-18 -13.0939)
(42.255 0 -17.137)
(41.6541 1.64237e-20 -20.0959)
(39.2207 0 -20.6426)
(36.8844 3.75476e-18 -20.2307)
(34.6944 0 -19.4875)
(32.5608 0 -18.594)
(30.4524 0 -17.5859)
(28.5821 0 -16.2823)
(26.6466 6.94125e-18 -15.2395)
(24.6986 6.68243e-18 -14.2333)
(22.8006 0 -13.2354)
(20.9668 -1.21945e-17 -12.2516)
(19.1911 0 -11.279)
(17.5525 1.53932e-20 -10.2928)
(15.8909 0 -9.52733)
(14.3723 -4.99036e-18 -8.6133)
(13.1232 0 -7.98301)
(11.9333 0 -6.8471)
(10.5846 0 -6.48625)
(9.53499 -1.67035e-17 -5.78322)
(8.25683 1.58132e-17 -4.97262)
(6.46666 -3.09438e-20 -3.80795)
(4.55241 -7.11163e-18 -2.97941)
(3.06614 0 -2.17171)
(0.439593 0 -0.909354)
(-1.97559 0 0.223507)
(-3.95828 1.07892e-17 1.26214)
(-5.24649 2.02704e-17 1.7277)
(-4.80028 0 1.31968)
(-1.58421 0 -1.18849)
(5.6376 6.13995e-18 -5.55231)
(18.9984 7.69508e-18 -13.4302)
(43.385 0 -22.1096)
(67.1761 0 -39.4654)
(93.4358 1.60319e-17 -54.8542)
(120.89 0 -68.4228)
(139.974 -2.32142e-19 -76.5455)
(142.742 3.56151e-17 -73.6912)
(126.752 4.75726e-17 -64.3944)
(85.769 0 -43.3858)
(14.9745 7.9378e-17 -0.0362029)
(-51.6521 8.15247e-17 34.1852)
(-94.2416 -1.29652e-16 52.9991)
(-118.418 1.10169e-16 64.6197)
(-116.845 0 63.0356)
(-99.2494 -7.65538e-17 53.447)
(-75.4278 6.18405e-17 40.2398)
(-52.4208 0 27.7426)
(-32.5175 -9.71685e-20 16.9629)
(-17.1512 -3.55913e-17 8.91752)
(-6.82598 0 3.75978)
(-0.156704 6.53023e-17 0.282481)
(3.52221 0 -1.65043)
(5.24045 0 -2.54606)
(5.77195 2.51358e-19 -2.78858)
(5.61437 2.46506e-19 -2.73231)
(5.13927 -6.49317e-17 -2.48559)
(4.55346 6.26942e-17 -2.13888)
(3.9564 -1.24719e-16 -1.73722)
(3.30023 0 -1.35543)
(2.62677 -1.23753e-16 -0.932119)
(1.90358 -1.30945e-16 -0.544942)
(1.09884 2.66954e-16 -0.200417)
(0.280461 -1.32284e-16 0.16284)
(-0.479306 0 0.544987)
(-1.25091 0 0.816781)
(-1.88633 0 1.15864)
(-2.38859 0 1.4526)
(-2.76763 0 1.67525)
(-3.01317 2.10313e-16 1.81945)
(-3.12264 -2.01611e-16 1.88397)
(-3.10078 0 1.87187)
(-2.95733 0 1.79149)
(-2.71182 -1.79757e-16 1.65268)
(-2.38532 -1.44254e-19 1.46925)
(-2.00374 -3.36665e-16 1.25525)
(-1.59256 0 1.0251)
(-1.17727 0 0.79308)
(-0.778627 0 0.57139)
(-0.415177 -2.95727e-19 0.370123)
(-0.10081 0 0.197152)
(0.156722 0 0.0567257)
(0.356005 -2.72925e-16 -0.0510502)
(0.494946 -2.12845e-19 -0.124852)
(0.573075 0 -0.164904)
(0.599168 0 -0.176153)
(0.588923 4.81957e-16 -0.167583)
(0.542528 4.66029e-16 -0.13808)
(0.445224 4.50761e-16 -0.0793762)
(0.291681 4.35403e-16 0.0105256)
(0.11229 -1.81804e-19 0.114706)
(-0.0507577 -1.65399e-19 0.208651)
(-0.173293 -3.90571e-16 0.279241)
(-0.263205 0 0.332057)
(-0.34257 0 0.37925)
(-0.425553 0 0.428994)
(-0.518552 -1.33391e-15 0.48467)
(-0.613433 6.4055e-16 0.541443)
(-0.713846 -6.14383e-16 0.600972)
(-0.807272 -5.88652e-16 0.656769)
(-0.907227 0 0.716277)
(-0.998416 0 0.770958)
(-1.09757 0 0.830865)
(-1.19203 -9.83168e-16 0.887934)
(-1.28652 0 0.945484)
(-1.39775 8.95771e-16 1.01271)
(-1.47051 0 1.05809)
(-1.62646 0 1.15148)
(-1.64087 -7.75998e-16 1.16365)
(-1.88075 0 1.27595)
(-1.81191 0 1.23677)
(-2.00425 0 1.3614)
(-2.00436 1.27429e-15 1.36197)
(-1.68196 0 1.1942)
(-2.27247 -1.15267e-15 1.54623)
(-2.12812 0 1.46581)
(-2.83847 -2.4235e-20 1.83906)
(-178.158 9.46436e-19 -85.9126)
(-47.3146 2.14294e-18 -47.4018)
(35.013 -5.74547e-20 -41.0221)
(81.0201 0 -48.5655)
(102.995 3.63759e-18 -57.2834)
(110.185 -3.82585e-18 -61.2411)
(110.941 -3.91633e-18 -61.962)
(108.982 3.95626e-18 -61.09)
(105.61 0 -59.3527)
(101.429 0 -57.0627)
(96.7671 0 -54.1568)
(91.5506 0 -51.2946)
(86.1682 0 -48.3432)
(80.6781 0 -45.3174)
(75.1579 -4.09589e-21 -42.2566)
(69.6501 0 -39.1837)
(64.313 -5.71613e-18 -36.0806)
(58.9813 0 -33.3443)
(53.8491 1.0406e-17 -30.3746)
(49.7125 -9.87591e-18 -27.8709)
(44.5842 0 -25.798)
(40.3558 -9.16666e-18 -22.8706)
(36.597 8.68539e-18 -20.3087)
(31.8052 -8.22177e-18 -18.0439)
(26.257 7.82661e-18 -14.5412)
(20.2839 0 -11.481)
(15.8602 -6.88518e-18 -8.09062)
(9.28298 0 -4.02056)
(3.37319 0 -0.416398)
(-1.34576 0 1.48678)
(-3.30031 -1.05472e-17 1.50001)
(0.0803322 0 -1.56533)
(12.255 0 -10.8655)
(37.7635 0 -26.6684)
(79.0779 0 -54.3086)
(143.502 0 -87.6162)
(214.555 0 -135.797)
(291.911 -1.64963e-17 -179.637)
(363.088 0 -217.16)
(405.281 -5.24572e-17 -234.916)
(400.815 -7.23366e-17 -215.381)
(335.652 -4.78783e-17 -181.166)
(204.351 0 -103.292)
(-2.59046 0 20.6804)
(-187.594 -1.60026e-16 116.208)
(-292.129 1.32385e-16 178.753)
(-349.558 -1.11775e-16 203.749)
(-340.213 0 192.245)
(-287.897 7.83434e-17 159.606)
(-218.796 0 119.209)
(-152.29 0 81.7976)
(-95.2904 4.16847e-17 49.9937)
(-51.5513 0 26.429)
(-22.1435 0 10.8528)
(-3.2568 -6.59778e-17 0.747639)
(7.32376 0 -4.7438)
(12.2779 0 -7.2391)
(13.8797 6.60056e-19 -7.76737)
(13.5091 -6.5922e-17 -7.33776)
(12.1051 -1.29079e-18 -6.47627)
(10.2821 0 -5.3255)
(8.29119 1.28693e-16 -4.03839)
(6.1091 1.32672e-16 -2.79425)
(3.85796 0 -1.44643)
(1.41289 2.65629e-16 -0.297708)
(-1.08417 2.60799e-18 0.85813)
(-3.52317 0 2.06279)
(-5.79339 -1.29182e-16 3.28216)
(-7.94257 0 4.27766)
(-9.69059 0 5.33121)
(-11.0739 0 6.19294)
(-12.0712 0 6.8124)
(-12.6542 -4.14073e-16 7.17709)
(-12.8214 1.98268e-16 7.28981)
(-12.5949 0 7.1663)
(-12.0151 0 6.83644)
(-11.1452 -1.76266e-16 6.33593)
(-10.0565 -2.2857e-19 5.70981)
(-8.82988 -2.53766e-19 5.00424)
(-7.54447 0 4.26537)
(-6.27636 0 3.53712)
(-5.08756 0 2.85603)
(-4.03075 -5.23189e-19 2.25211)
(-3.14404 2.8137e-16 1.74746)
(-2.44668 -2.72616e-16 1.35281)
(-1.93962 2.63702e-16 1.06704)
(-1.62769 -3.74245e-19 0.893565)
(-1.50833 2.47661e-16 0.829539)
(-1.55161 0 0.857367)
(-1.71377 -4.63243e-16 0.951449)
(-2.00133 0 1.11872)
(-2.45734 -4.32198e-16 1.38384)
(-3.08305 0 1.74567)
(-3.77542 8.0427e-16 2.14306)
(-4.40642 3.87561e-16 2.50185)
(-4.91417 0 2.78795)
(-5.33311 0 3.02445)
(-5.73195 6.89147e-16 3.25021)
(-6.15166 -6.61312e-16 3.48923)
(-6.60849 1.2685e-15 3.74939)
(-7.077 -6.08352e-16 4.01615)
(-7.56778 5.82978e-16 4.29457)
(-8.04481 0 4.56518)
(-8.54972 -5.34119e-16 4.85138)
(-9.03432 0 5.12593)
(-9.55512 0 5.42166)
(-10.0642 9.29624e-16 5.71041)
(-10.5908 0 6.009)
(-11.1664 2.09117e-19 6.33635)
(-11.6497 -8.0613e-16 6.60875)
(-12.3819 0 7.02688)
(-12.7035 0 7.20383)
(-13.705 0 7.76578)
(-13.7351 -6.62364e-16 7.76777)
(-14.7876 1.26047e-15 8.37276)
(-14.8391 -1.19795e-15 8.38957)
(-14.6069 0 8.23533)
(-15.9093 1.08265e-15 9.05053)
(-15.6686 0 8.84443)
(-14.986 -1.94553e-15 8.60324)
(-183.835 -2.04135e-18 -126.22)
(-109.417 1.26356e-18 -89.9058)
(-20.1975 5.52206e-18 -71.1345)
(60.8276 0 -69.4182)
(118.663 3.42509e-18 -78.5489)
(151.192 5.48778e-21 -87.9335)
(166.942 0 -93.4833)
(173.228 -3.75449e-18 -95.7319)
(174.078 0 -95.7094)
(171.545 -3.66646e-18 -94.1509)
(166.734 0 -91.5243)
(160.456 0 -88.0531)
(153.154 0 -84.0407)
(145.126 0 -79.6491)
(136.621 6.03793e-18 -74.9947)
(127.803 0 -70.1717)
(118.96 0 -65.2359)
(110.069 0 -60.4932)
(101.187 -4.94671e-18 -55.6171)
(93.4254 -1.03292e-19 -50.9643)
(84.2599 0 -48.1283)
(77.2693 -1.64716e-20 -42.2219)
(69.2659 0 -38.3517)
(61.2753 7.85517e-18 -33.2094)
(52.4242 0 -27.0935)
(42.0153 0 -23.2254)
(34.7649 6.53101e-18 -17.54)
(24.7107 0 -12.0998)
(16.6852 0 -6.17417)
(10.3119 1.13095e-17 -4.44474)
(9.02168 0 -6.42535)
(16.184 0 -14.3027)
(37.3588 0 -32.2314)
(78.8942 0 -60.987)
(149.406 -6.77374e-18 -99.5379)
(241.752 0 -166.151)
(353.687 0 -237.156)
(471.624 1.55544e-17 -300.151)
(573.075 0 -348.336)
(625.7 4.87157e-17 -360.096)
(602.9 6.79556e-19 -310.946)
(483.95 4.53317e-17 -238.413)
(268.786 0 -99.7661)
(-51.1544 0 81.2074)
(-312.141 7.25776e-17 235.004)
(-470.744 0 302.873)
(-550.708 1.05735e-16 323.043)
(-532.385 0 294.175)
(-450.652 4.16992e-19 238.811)
(-343.479 0 176.313)
(-240.124 0 120.095)
(-151.825 0 73.1232)
(-83.9914 3.42091e-17 38.8292)
(-38.2385 0 15.8283)
(-8.84246 0 1.54547)
(7.64259 0 -6.18442)
(15.3238 0 -9.51473)
(17.7188 -1.25989e-16 -10.0363)
(17.0311 0 -9.08074)
(14.6569 -1.60672e-18 -7.55017)
(11.5708 0 -5.6239)
(8.15568 -6.20189e-17 -3.52233)
(4.46713 -1.2509e-16 -1.44233)
(0.657814 0 0.761712)
(-3.26162 -2.5933e-16 2.92814)
(-7.29203 -1.281e-16 4.90442)
(-11.175 0 6.92724)
(-14.7812 1.21658e-16 8.88741)
(-18.0817 0 10.5469)
(-20.7813 0 12.116)
(-22.8879 0 13.3314)
(-24.3453 0 14.145)
(-25.1166 2.24037e-19 14.547)
(-25.2093 -1.86454e-16 14.5503)
(-24.669 0 14.1881)
(-23.5728 0 13.5133)
(-22.0302 -6.88312e-20 12.5897)
(-20.1635 3.20061e-16 11.4922)
(-18.1072 1.54611e-16 10.2971)
(-15.9909 0 9.07901)
(-13.9366 0 7.90654)
(-12.0427 0 6.8349)
(-10.3908 5.4506e-16 5.90899)
(-9.03788 3.00147e-19 5.15963)
(-8.00994 2.55735e-16 4.5994)
(-7.30545 0 4.22451)
(-6.92994 2.39841e-16 4.03899)
(-6.87516 -2.32181e-16 4.03463)
(-7.0899 0 4.18015)
(-7.50871 0 4.43909)
(-8.14817 -4.19997e-16 4.8285)
(-9.07385 0 5.38462)
(-10.2711 -3.91143e-16 6.09171)
(-11.5626 1.04653e-19 6.83923)
(-12.7436 -3.63179e-16 7.51279)
(-13.7267 3.49367e-16 8.06992)
(-14.5763 0 8.55676)
(-15.4047 -6.44931e-16 9.03638)
(-16.275 6.1879e-16 9.54403)
(-17.2102 -1.18709e-15 10.0882)
(-18.1686 0 10.6454)
(-19.1669 5.45517e-16 11.2241)
(-20.1478 0 11.7932)
(-21.1786 4.99439e-16 12.3911)
(-22.179 -4.76968e-16 12.9718)
(-23.2441 0 13.5909)
(-24.2879 -8.68964e-16 14.197)
(-25.3698 0 14.8269)
(-26.5229 -1.58059e-15 15.4965)
(-27.5405 7.533e-16 16.09)
(-28.9505 0 16.9088)
(-29.6992 0 17.345)
(-31.5571 0 18.4362)
(-31.7771 7.96474e-21 18.5536)
(-33.8557 -1.17738e-15 19.7761)
(-33.8983 1.11896e-15 19.765)
(-34.215 0 19.9691)
(-35.6328 1.01106e-15 20.8736)
(-35.7551 0 20.7589)
(-31.4059 2.33683e-20 18.336)
(-182.914 1.08364e-18 -159.297)
(-148.302 9.80822e-20 -129.611)
(-82.398 -2.65138e-18 -103.857)
(-1.09714 2.98987e-18 -91.5042)
(77.8683 3.19578e-18 -94.5034)
(141.058 6.83147e-18 -104.61)
(184.394 0 -114.704)
(210.868 0 -122.006)
(225.377 0 -126.068)
(231.707 3.47255e-18 -127.333)
(232.354 0 -126.376)
(229.001 0 -123.737)
(222.763 0 -119.856)
(214.415 0 -115.033)
(204.538 0 -109.499)
(193.543 5.45693e-18 -103.451)
(181.9 -5.2022e-18 -97.0313)
(169.773 0 -90.6281)
(157.302 0 -84.0221)
(145.749 8.97623e-18 -77.4527)
(133.088 -8.71984e-18 -72.2578)
(121.688 8.25424e-18 -64.747)
(109.638 -7.86694e-18 -59.3224)
(98.8482 -7.43861e-18 -50.8857)
(84.7768 7.1419e-18 -43.8513)
(71.6824 -6.62299e-18 -35.8581)
(60.7988 0 -30.302)
(48.4725 6.36177e-18 -23.6363)
(38.1372 0 -18.4317)
(32.2838 -1.07042e-17 -14.9494)
(31.8955 0 -20.3354)
(42.8737 0 -33.9607)
(72.1374 0 -61.2246)
(128.623 5.43918e-18 -103.581)
(218.146 6.40714e-18 -157.472)
(333.72 0 -245.096)
(477.124 0 -335.775)
(622.563 -1.4708e-17 -412.676)
(740.704 0 -461.422)
(791.136 -6.42663e-19 -456.448)
(739.311 3.13935e-17 -371.969)
(568.024 0 -247.916)
(279.676 0 -55.0818)
(-114.946 0 172.656)
(-431.182 0 358.725)
(-631.242 1.13158e-16 416.36)
(-718.325 0 423.974)
(-690.051 -8.51122e-17 375.75)
(-584.685 -7.03303e-17 299.949)
(-447.897 0 219.043)
(-315.295 0 148.242)
(-202.079 0 89.9312)
(-114.626 -3.22734e-17 48.1675)
(-55.3178 3.04e-17 20.0835)
(-17.1876 5.89507e-17 3.36148)
(4.09858 0 -5.70403)
(13.9523 5.90206e-17 -9.34812)
(16.7859 1.19545e-16 -9.71972)
(15.5662 0 -8.27732)
(12.2005 1.22314e-16 -5.98352)
(7.84743 0 -3.2498)
(3.0114 6.37058e-17 -0.348693)
(-2.13281 1.27977e-16 2.57763)
(-7.41033 0 5.60473)
(-12.7416 1.2422e-16 8.68111)
(-18.1195 1.23721e-16 11.5508)
(-23.2484 0 14.366)
(-27.9945 0 16.983)
(-32.2301 0 19.2082)
(-35.6956 -1.04977e-16 21.1134)
(-38.3332 -1.00087e-16 22.5196)
(-40.06 0 23.3853)
(-40.8435 1.82744e-16 23.7037)
(-40.709 1.74958e-16 23.4989)
(-39.7325 0 22.8227)
(-38.0329 0 21.7508)
(-35.7665 1.55591e-16 20.3748)
(-33.107 2.72913e-20 18.7976)
(-30.2389 0 17.1236)
(-27.3386 0 15.4523)
(-24.5679 0 13.8736)
(-22.056 0 12.4578)
(-19.9068 1.19217e-19 11.2608)
(-18.1912 -2.47813e-16 10.319)
(-16.9365 0 9.64386)
(-16.137 0 9.22889)
(-15.7966 0 9.07741)
(-15.8989 -2.17781e-16 9.1746)
(-16.3713 0 9.47617)
(-17.1339 -4.07354e-16 9.93869)
(-18.2155 3.93305e-16 10.59)
(-19.6964 -3.79599e-16 11.4734)
(-21.5337 3.66168e-16 12.5514)
(-23.4764 -7.05417e-16 13.6657)
(-25.2545 3.39887e-16 14.6683)
(-26.7678 -3.26914e-16 15.5152)
(-28.1119 0 16.2761)
(-29.4378 0 17.035)
(-30.824 5.78858e-16 17.8349)
(-32.2982 5.55134e-16 18.6831)
(-33.8018 5.32418e-16 19.5476)
(-35.3578 -1.05786e-20 20.4393)
(-36.8883 0 21.3167)
(-38.4835 0 22.2308)
(-40.0309 4.45822e-16 23.1175)
(-41.6609 0 24.0528)
(-43.248 8.1204e-16 24.962)
(-44.8821 0 25.9005)
(-46.591 4.23071e-20 26.8794)
(-48.1128 0 27.7534)
(-50.1414 6.70186e-16 28.9161)
(-51.2554 -6.38213e-16 29.5509)
(-53.8894 -6.07526e-16 31.0581)
(-54.1865 3.96479e-20 31.1995)
(-57.2096 0 32.9511)
(-56.9895 -1.04497e-15 32.7579)
(-58.0247 -9.92601e-16 33.3278)
(-58.8425 -9.44091e-16 33.9885)
(-59.7231 0 34.0588)
(-50.406 2.66017e-20 28.9666)
(-172.29 0 -172.975)
(-159.151 1.05944e-19 -153.61)
(-125.027 0 -132.222)
(-67.7595 -2.82477e-18 -116.012)
(5.34599 -6.07936e-18 -111.015)
(81.8098 -3.21404e-18 -115.732)
(149.695 0 -125.71)
(203.089 0 -136.69)
(241.368 3.32328e-18 -145.859)
(266.439 3.27218e-18 -152.058)
(280.94 -3.19066e-18 -155.163)
(287.33 -6.17579e-18 -155.531)
(287.56 -5.94105e-18 -153.633)
(283.102 0 -149.898)
(275.079 0 -144.702)
(264.329 -1.03375e-17 -138.382)
(251.626 -1.85586e-20 -131.197)
(237.486 0 -123.59)
(222.203 4.4915e-18 -115.579)
(207.141 8.58592e-18 -107.264)
(190.835 8.24435e-18 -100.149)
(175.252 0 -90.7008)
(159.309 7.43719e-18 -82.6465)
(143.892 -7.07555e-18 -72.4414)
(125.795 -6.75083e-18 -64.7611)
(110.794 -6.41717e-20 -51.7606)
(96.045 0 -45.2736)
(81.2337 2.91546e-20 -38.2465)
(69.1389 0 -34.1554)
(62.8038 -1.05311e-17 -32.0054)
(62.78 0 -40.7062)
(77.7083 0 -59.2187)
(112.552 0 -96.2736)
(177.654 -5.13678e-18 -151.859)
(275.229 0 -230.637)
(413.55 0 -325.644)
(577.327 0 -428.076)
(739.08 0 -509.656)
(862.164 1.55431e-17 -548.863)
(900.975 -4.10777e-17 -517.373)
(815.831 0 -390.869)
(596.952 -3.80307e-17 -211.651)
(253.283 0 29.0185)
(-191.468 0 283.436)
(-549.496 0 462.532)
(-763.16 -6.9965e-19 518.929)
(-853.821 0 505.742)
(-817.451 8.02509e-17 435.847)
(-694.715 0 341.561)
(-535.792 0 246.598)
(-380.686 4.11373e-17 165.931)
(-247.98 0 100.398)
(-144.721 0 54.6079)
(-74.296 1.29615e-20 23.9603)
(-29.059 -5.55233e-17 6.12206)
(-3.7998 0 -3.17032)
(7.79104 1.99312e-21 -6.54336)
(10.8917 -1.1283e-16 -6.4035)
(9.08741 0 -4.2993)
(4.6895 -5.80843e-17 -1.23065)
(-0.94485 0 2.28889)
(-7.17004 -5.9931e-17 5.97977)
(-13.6997 -1.20372e-16 9.74536)
(-20.372 0 13.5595)
(-27.0925 -1.19628e-16 17.2874)
(-33.6387 2.1049e-19 20.9654)
(-39.8598 0 24.4401)
(-45.5586 0 27.5744)
(-50.5162 0 30.2571)
(-54.5486 1.97137e-16 32.3706)
(-57.5134 8.02049e-20 33.8458)
(-59.3233 0 34.6472)
(-59.9558 -1.7132e-16 34.7769)
(-59.4589 -3.28393e-16 34.2756)
(-57.9416 0 33.2165)
(-55.565 0 31.7007)
(-52.532 0 29.8478)
(-49.065 9.92011e-22 27.7877)
(-45.395 0 25.6504)
(-41.7405 0 23.5574)
(-38.298 0 21.6157)
(-35.2218 0 19.9067)
(-32.6337 -2.39768e-16 18.494)
(-30.6131 -2.32343e-16 17.4153)
(-29.1856 0 16.6785)
(-28.3403 0 16.2732)
(-28.0775 0 16.2006)
(-28.3705 -1.13086e-20 16.4374)
(-29.127 0 16.9268)
(-30.2578 3.8134e-16 17.6227)
(-31.8025 0 18.5649)
(-33.8487 3.55256e-16 19.7974)
(-36.3171 0 21.2533)
(-38.8886 3.30012e-16 22.7283)
(-41.2381 0 24.0492)
(-43.2611 0 25.1795)
(-45.0799 0 26.2119)
(-46.8795 0 27.2479)
(-48.7472 -5.41258e-16 28.3327)
(-50.7139 0 29.471)
(-52.7041 -4.97726e-16 30.6218)
(-54.7467 -4.76768e-16 31.7985)
(-56.7431 0 32.9498)
(-58.8028 0 34.1368)
(-60.7821 0 35.2784)
(-62.8407 0 36.4672)
(-64.8168 -5.97647e-20 37.6068)
(-66.8224 0 38.7681)
(-68.8864 1.37947e-15 39.9574)
(-70.6827 0 41.0015)
(-73.0777 -1.2519e-15 42.3793)
(-74.2767 5.96074e-16 43.0776)
(-77.3707 5.67377e-16 44.8638)
(-77.4126 5.39634e-16 44.8676)
(-81.0604 0 46.9899)
(-80.159 0 46.3766)
(-81.7756 1.85351e-15 47.2903)
(-81.332 -8.81326e-16 47.2814)
(-83.1315 -8.34322e-16 47.5287)
(-69.2011 7.91538e-16 39.7071)
(-160.087 0 -177.532)
(-154.664 -2.60203e-18 -165.997)
(-142.959 0 -152.276)
(-113.452 0 -138.277)
(-63.0488 0 -128.903)
(2.86649 0 -127.136)
(74.98 0 -132.534)
(145.009 -3.10915e-18 -142.547)
(206.796 -3.13493e-18 -154.187)
(256.755 -6.15834e-18 -165.014)
(293.921 6.01307e-18 -173.475)
(319.144 5.82803e-18 -178.904)
(334.076 5.60708e-18 -181.25)
(340.515 0 -180.751)
(340.09 0 -177.783)
(334.174 9.79286e-18 -172.772)
(323.982 9.34012e-18 -166.094)
(310.509 0 -158.271)
(294.361 -4.23995e-18 -149.568)
(277.056 -8.10492e-18 -140.033)
(257.914 0 -131.184)
(238.525 -7.40237e-18 -120.091)
(218.634 0 -109.795)
(199.032 -1.94099e-20 -97.4532)
(177.784 6.3814e-18 -86.907)
(158.273 -4.7572e-20 -73.6743)
(140.301 0 -64.6858)
(122.397 -5.70052e-18 -58.2985)
(109.244 1.05237e-17 -53.4181)
(100.618 1.99454e-17 -54.7888)
(102.644 8.99803e-18 -64.0704)
(116.249 0 -92.2118)
(152.821 5.85778e-18 -138.481)
(221.611 0 -206.489)
(328.453 0 -292.1)
(474.279 0 -400.278)
(647.932 0 -509.341)
(815.364 0 -587.411)
(933.896 -5.44476e-19 -607.939)
(955.404 1.90205e-17 -541.874)
(838.342 0 -367.814)
(581.036 7.06144e-17 -135.505)
(200.727 0 140.485)
(-268.347 0 405.77)
(-643.316 0 576.003)
(-869.077 -9.98763e-17 609.251)
(-959.581 0 570.46)
(-917.94 0 477.983)
(-783.741 0 367.126)
(-609.494 0 261.523)
(-438.051 -7.73245e-17 174.89)
(-290.412 0 106.128)
(-175.391 0 57.9998)
(-95.7171 -2.69563e-17 27.7394)
(-44.8146 0 10.1045)
(-16.3357 0 1.49649)
(-3.38481 -1.04503e-16 -1.06057)
(-0.167828 5.3079e-17 -0.0828331)
(-2.61835 0 2.82073)
(-8.08387 0 6.64699)
(-14.9847 0 10.8999)
(-22.5302 5.72246e-17 15.3443)
(-30.3598 0 19.8808)
(-38.2853 0 24.4346)
(-46.1348 2.24833e-16 28.9462)
(-53.7633 -2.18887e-16 33.2291)
(-60.933 0 37.1899)
(-67.4151 0 40.6854)
(-72.9632 0 43.5892)
(-77.3655 -9.24722e-17 45.794)
(-80.4738 8.81375e-17 47.2274)
(-82.202 1.68196e-16 47.8611)
(-82.5412 1.60717e-16 47.7111)
(-81.5648 1.53979e-16 46.8372)
(-79.4157 -1.47669e-16 45.3362)
(-76.2967 0 43.3349)
(-72.4556 0 40.9796)
(-68.1605 -1.32149e-16 38.426)
(-63.6851 0 35.8268)
(-59.2859 0 33.3225)
(-55.189 0 31.0336)
(-51.5699 0 29.0497)
(-48.5632 0 27.4389)
(-46.2537 4.3518e-16 26.2378)
(-44.6621 0 25.4485)
(-43.7721 2.03918e-16 25.0565)
(-43.5774 0 25.0594)
(-44.0406 7.88013e-21 25.4245)
(-45.0505 -3.69152e-16 26.0832)
(-46.513 0 26.9899)
(-48.4749 0 28.1951)
(-51.0245 0 29.7384)
(-54.0401 0 31.5183)
(-57.1448 -3.08623e-16 33.2891)
(-59.9677 0 34.8601)
(-62.4066 0 36.2074)
(-64.6031 0 37.4445)
(-66.7704 0 38.6859)
(-68.9976 0 39.975)
(-71.3197 0 41.3131)
(-73.6437 0 42.6502)
(-76.0049 0 44.0021)
(-78.284 4.26347e-16 45.3081)
(-80.6068 0 46.6377)
(-82.8018 0 47.8941)
(-85.049 0 49.1823)
(-87.1595 -7.08679e-16 50.3887)
(-89.2527 0 51.5918)
(-91.3762 -6.44197e-16 52.8028)
(-93.1191 0 53.8088)
(-95.5457 6.28713e-20 55.1887)
(-96.4653 0 55.7186)
(-99.6617 -5.29709e-16 57.5371)
(-99.058 0 57.1492)
(-102.978 0 59.406)
(-100.939 0 58.104)
(-103.009 -8.65183e-16 59.2047)
(-100.67 1.64547e-15 58.2599)
(-103.34 1.55766e-15 58.5567)
(-86.0297 7.38808e-16 48.9095)
(-151.027 0 -181.613)
(-147.152 2.60583e-18 -174.031)
(-144.527 0 -165.346)
(-133.331 0 -155.082)
(-106.695 2.72937e-18 -145.546)
(-63.5514 2.79412e-18 -140.147)
(-6.65528 -2.85288e-18 -140.375)
(59.4398 8.71061e-18 -145.968)
(129 0 -155.634)
(196.162 2.53606e-20 -167.482)
(256.068 -2.82852e-18 -179.497)
(305.56 0 -190.012)
(343.309 0 -197.935)
(369.455 0 -202.727)
(384.995 0 -204.28)
(391.311 1.67816e-20 -202.801)
(389.873 1.78879e-20 -198.618)
(382.127 -4.2259e-18 -192.27)
(369.096 -4.02957e-18 -184.21)
(352.542 0 -174.523)
(332.653 7.35165e-18 -164.699)
(310.911 6.97724e-18 -152.531)
(287.917 0 -140.388)
(264.559 -1.8463e-20 -126.276)
(239.908 1.67454e-20 -113.541)
(216.38 5.6695e-18 -99.2388)
(194.559 0 -88.8246)
(173.86 0 -81.2768)
(157.857 -9.91593e-18 -77.2072)
(147.773 2.65606e-20 -79.6249)
(147.241 -1.70381e-17 -90.6062)
(159.5 0 -121.841)
(198.154 -1.05557e-17 -170.703)
(262.901 0 -253.77)
(367.688 0 -350.213)
(511.808 6.18674e-18 -464.995)
(684.692 0 -575.07)
(848.299 1.15451e-17 -642.383)
(955.143 -6.29143e-19 -636.962)
(957.23 -1.6269e-17 -531.231)
(813.947 0 -307.869)
(532.048 -1.16336e-18 -26.806)
(133.803 0 270.435)
(-339.744 0 533.71)
(-721.816 0 678.192)
(-949.792 0 687.471)
(-1039.95 0 620.379)
(-996.313 -7.26785e-17 504.999)
(-855.743 0 379.183)
(-671.753 0 265.711)
(-488.806 3.62963e-17 176.748)
(-330.978 0 106.944)
(-206.726 2.7001e-17 59.741)
(-119.87 2.53449e-17 31.2869)
(-64.4496 -4.8991e-17 15.3875)
(-33.4287 0 8.33111)
(-19.4583 4.90792e-17 7.0964)
(-16.2656 4.98333e-17 9.18695)
(-19.3722 0 13.0517)
(-25.8371 0 17.7463)
(-33.9094 0 22.7819)
(-42.6779 -5.37301e-17 27.9557)
(-51.7163 0 33.173)
(-60.7996 0 38.3358)
(-69.7308 -1.0555e-16 43.35)
(-78.2866 2.05425e-16 48.1055)
(-86.2396 0 52.428)
(-93.3314 0 56.1633)
(-99.291 0 59.1852)
(-103.905 0 61.3646)
(-107.01 8.25506e-17 62.6471)
(-108.527 -1.577e-16 63.0155)
(-108.461 0 62.5019)
(-106.911 0 61.1863)
(-104.054 1.38394e-16 59.1893)
(-100.131 0 56.6626)
(-95.4332 1.28187e-16 53.7778)
(-90.2706 -1.23778e-16 50.7137)
(-84.956 0 47.6433)
(-79.781 0 44.7232)
(-74.9974 0 42.0843)
(-70.7995 0 39.822)
(-67.3319 0 38.0059)
(-64.6825 -2.03676e-16 36.67)
(-62.8655 0 35.809)
(-61.8592 -3.81647e-16 35.4039)
(-61.6484 0 35.4474)
(-62.1852 1.58788e-20 35.8969)
(-63.3396 3.24969e-20 36.6728)
(-65.0158 0 37.733)
(-67.2624 -3.22138e-16 39.1354)
(-70.163 0 40.9106)
(-73.5524 0 42.92)
(-77.0089 5.77083e-16 44.8845)
(-80.1245 0 46.6031)
(-82.8034 0 48.0691)
(-85.1954 0 49.4114)
(-87.5378 0 50.7543)
(-89.9139 0 52.1345)
(-92.3671 0 53.5512)
(-94.7852 0 54.945)
(-97.2128 0 56.3354)
(-99.5105 -3.98312e-16 57.6533)
(-101.818 0 58.9746)
(-103.941 0 60.1913)
(-106.072 0 61.414)
(-108.008 6.61749e-16 62.521)
(-109.855 6.30994e-16 63.5868)
(-111.708 6.01465e-16 64.6423)
(-113.038 -5.73146e-16 65.4198)
(-115.154 6.41846e-20 66.6173)
(-115.42 5.19588e-16 66.7852)
(-118.376 9.89101e-16 68.459)
(-116.746 0 67.4936)
(-120.652 -8.94681e-16 69.7349)
(-117.066 -8.50159e-16 67.5243)
(-119.529 0 68.804)
(-114.865 -7.67979e-16 66.6555)
(-118.271 -7.26969e-16 66.8511)
(-99.4079 -6.89575e-16 56.2194)
(-144.302 0 -186.303)
(-140.643 -1.25892e-18 -180.429)
(-139.54 0 -173.963)
(-136.123 0 -166.522)
(-125.18 -2.57023e-18 -158.846)
(-103.11 -2.63061e-18 -152.845)
(-68.0905 2.68533e-18 -149.968)
(-20.256 -8.13142e-18 -151.103)
(38.3907 0 -156.462)
(104.364 -2.63446e-18 -165.484)
(173.14 5.24006e-18 -177)
(239.849 0 -189.535)
(300.118 -4.95459e-18 -201.565)
(350.761 0 -211.772)
(389.998 -4.57932e-18 -219.189)
(417.407 -4.36702e-18 -223.307)
(433.482 -4.16776e-18 -223.98)
(439.427 3.97769e-18 -221.451)
(436.374 7.60218e-18 -216.131)
(426.223 0 -208.116)
(409.959 -6.92048e-18 -198.804)
(389.203 0 -186.694)
(365.369 0 -173.626)
(339.74 5.9595e-18 -158.409)
(312.427 -1.13732e-17 -143.937)
(285.326 0 -128.595)
(259.528 0 -116.826)
(235.039 0 -108.514)
(215.216 9.48357e-18 -104.605)
(201.534 -8.90015e-18 -108.115)
(197.708 -4.542e-20 -122.325)
(209.586 -6.64781e-18 -150.928)
(239.075 1.00031e-17 -203.608)
(295.754 -9.19133e-18 -289.547)
(389.376 7.36131e-18 -397.901)
(522.746 8.27458e-20 -516.373)
(685.465 0 -622.107)
(837.363 -1.08563e-17 -672.617)
(927.941 -1.18966e-17 -636.134)
(912.105 1.52987e-17 -488.568)
(751.882 0 -217.998)
(462.319 -2.96817e-17 107.507)
(61.4749 -3.92468e-17 410.757)
(-401.057 -6.01687e-17 662.26)
(-780.703 -4.70586e-17 776.93)
(-1009.38 0 755.982)
(-1100.02 0 658.972)
(-1057.46 -6.61892e-19 520.349)
(-914.581 0 380.383)
(-725.127 0 260.742)
(-535.547 3.36042e-17 170.743)
(-369.555 -2.95153e-17 104.613)
(-238.383 -2.53572e-17 60.3629)
(-146.583 -5.40553e-21 34.7555)
(-87.6634 5.91699e-20 21.7805)
(-54.7022 0 17.0833)
(-40.0184 0 17.6531)
(-36.9748 -9.35046e-17 21.1148)
(-40.7661 0 26.0402)
(-48.2093 0 31.5936)
(-57.3854 4.95965e-17 37.3645)
(-67.2771 0 43.2004)
(-77.4007 0 49.0183)
(-87.4884 -1.01032e-16 54.7298)
(-97.3232 9.89859e-17 60.2146)
(-106.669 -1.92619e-16 65.3237)
(-115.263 0 69.8896)
(-122.828 8.9124e-17 73.7482)
(-129.079 0 76.7637)
(-133.785 0 78.8192)
(-136.783 -1.5468e-16 79.862)
(-137.998 0 79.8869)
(-137.45 0 78.9423)
(-135.262 0 77.1282)
(-131.637 0 74.5871)
(-126.856 0 71.4943)
(-121.246 -1.20038e-16 68.0439)
(-115.157 1.55908e-20 64.4363)
(-108.939 1.1195e-16 60.862)
(-102.916 -1.08377e-16 57.4918)
(-97.3629 0 54.4649)
(-92.4934 0 51.8814)
(-88.46 0 49.8111)
(-85.3546 0 48.2841)
(-83.184 0 47.2874)
(-81.9223 2.09544e-20 46.7978)
(-81.5429 0 46.8018)
(-81.9886 1.67011e-16 47.247)
(-83.1112 4.21923e-20 48.0433)
(-84.8154 0 49.1536)
(-87.1429 3.01192e-16 50.6397)
(-90.1709 0 52.5202)
(-93.693 -2.80088e-16 54.619)
(-97.2611 -3.48354e-20 56.633)
(-100.437 0 58.3569)
(-103.134 0 59.8052)
(-105.496 0 61.1157)
(-107.782 0 62.4198)
(-110.061 -4.41612e-16 63.7432)
(-112.392 0 65.0854)
(-114.643 0 66.3776)
(-116.871 -3.88701e-16 67.6449)
(-118.92 0 68.8112)
(-120.938 3.55564e-16 69.9569)
(-122.723 -3.39409e-16 70.9688)
(-124.46 0 71.9556)
(-125.96 -1.23587e-15 72.7995)
(-127.281 -8.19893e-20 73.5547)
(-128.609 -1.12317e-15 74.293)
(-129.246 5.35153e-16 74.668)
(-130.809 5.09517e-16 75.5268)
(-130.154 -4.85102e-16 75.164)
(-132.66 -4.6168e-16 76.5503)
(-129.752 -4.38987e-16 74.8398)
(-133.525 8.35199e-16 76.9691)
(-128.086 7.93608e-16 73.6779)
(-131.087 7.53634e-16 75.1502)
(-123.753 7.16687e-16 71.6815)
(-127.77 0 71.6951)
(-108.878 0 61.0763)
(-138.087 0 -190.5)
(-134.75 -1.28151e-18 -185.595)
(-133.538 0 -180.277)
(-132.332 0 -174.61)
(-128.444 0 -168.797)
(-119.122 0 -163.524)
(-101.689 -2.51051e-18 -159.662)
(-74.1395 2.52972e-18 -158.158)
(-35.3361 -2.50076e-18 -159.704)
(14.6773 5.01285e-18 -164.58)
(74.396 -4.92526e-18 -172.63)
(140.915 0 -183.295)
(210.284 4.65648e-18 -195.615)
(278.098 0 -208.376)
(340.08 4.30401e-18 -220.251)
(392.811 4.12948e-18 -230.079)
(433.976 0 -236.935)
(462.741 0 -240.338)
(479.024 -3.58107e-18 -240.208)
(484.011 0 -236.355)
(478.903 0 -229.862)
(465.38 6.22962e-18 -219.753)
(445.479 0 -207.434)
(421.07 0 -192.357)
(393.318 5.3558e-18 -177.078)
(364.065 0 -161.146)
(334.873 0 -148.3)
(306.349 0 -139.111)
(281.704 -1.78921e-17 -134.94)
(262.729 0 -138.641)
(252.39 -9.74198e-20 -154.089)
(253.834 -3.60457e-19 -188.05)
(271.452 -4.94634e-18 -246.397)
(318.351 8.63762e-18 -325.053)
(394.472 -1.39739e-17 -431.895)
(506.5 -5.54411e-18 -552.934)
(650.759 0 -649.038)
(784.821 0 -677.935)
(856.929 -9.69852e-18 -607.835)
(827.718 1.2384e-17 -418.968)
(662.418 0 -106.612)
(379.214 0 254.345)
(-10.461 2.01402e-18 555.08)
(-450.773 5.65097e-17 789.037)
(-824.082 4.41933e-17 870.3)
(-1052.48 7.99741e-17 817.471)
(-1145.05 0 689.842)
(-1106.19 -6.94892e-19 527.167)
(-963.887 0 373.001)
(-771.134 0 249.764)
(-578.815 -3.15376e-17 157.358)
(-406.019 2.76979e-17 99.1937)
(-271.004 0 58.7901)
(-175.243 -2.23253e-17 37.8381)
(-113.723 7.32825e-20 28.899)
(-79.3523 0 27.3237)
(-64.2301 0 30.1607)
(-61.4457 8.75992e-17 35.2396)
(-65.9293 0 41.3292)
(-74.2959 0 47.7602)
(-84.4832 -9.29884e-17 54.2366)
(-95.3878 0 60.6714)
(-106.48 0 67.0061)
(-117.462 1.89351e-16 73.1501)
(-128.086 -9.27716e-17 78.9923)
(-138.101 9.02497e-17 84.3657)
(-147.227 0 89.0881)
(-155.17 -8.35012e-17 92.9882)
(-161.628 0 95.928)
(-166.364 7.59567e-17 97.793)
(-169.205 7.2417e-17 98.5388)
(-170.082 0 98.1719)
(-169.022 0 96.7556)
(-166.165 -1.2642e-16 94.4074)
(-161.739 -1.21267e-16 91.2894)
(-156.055 0 87.5976)
(-149.473 0 83.5463)
(-142.381 2.16882e-16 79.3549)
(-135.162 -1.04762e-16 75.2295)
(-128.172 2.02797e-16 71.3545)
(-121.713 0 67.8764)
(-116.018 0 64.8999)
(-111.248 0 62.4947)
(-107.503 0 60.688)
(-104.784 0 59.4592)
(-103.062 2.48886e-20 58.7817)
(-102.298 0 58.6351)
(-102.429 0 58.9579)
(-103.286 4.77629e-20 59.6504)
(-104.778 0 60.6814)
(-106.929 2.81446e-16 62.1116)
(-109.81 0 63.9462)
(-113.179 2.61761e-16 65.9743)
(-116.584 -3.79496e-20 67.8805)
(-119.56 0 69.461)
(-122.035 0 70.7543)
(-124.129 0 71.8986)
(-126.119 0 73.0304)
(-128.056 6.28903e-20 74.1606)
(-130.021 -3.95395e-16 75.2922)
(-131.86 3.79056e-16 76.3475)
(-133.648 3.63041e-16 77.3586)
(-135.216 0 78.2455)
(-136.715 -3.32055e-16 79.0897)
(-137.95 3.16951e-16 79.7817)
(-139.079 0 80.4172)
(-139.957 5.76951e-16 80.8984)
(-140.556 -1.10008e-15 81.2393)
(-141.196 5.2429e-16 81.5746)
(-140.959 0 81.455)
(-141.828 -4.75539e-16 81.9026)
(-140.089 0 80.9338)
(-142.046 0 81.9821)
(-137.703 4.09784e-16 79.4683)
(-141.348 0 81.4916)
(-133.837 0 77.0241)
(-137.619 -7.03432e-16 78.8275)
(-127.412 -6.68927e-16 73.9207)
(-132.039 -6.33108e-16 73.7514)
(-114.288 6.00591e-16 63.6733)
(-131.831 0 -194.003)
(-128.976 1.20454e-18 -189.946)
(-128.022 2.45845e-18 -185.599)
(-127.426 0 -181.056)
(-125.725 0 -176.435)
(-121.806 0 -171.98)
(-114.217 2.35921e-18 -168.193)
(-101.076 0 -165.685)
(-80.257 2.34941e-18 -165.001)
(-49.9195 0 -166.586)
(-9.00782 0 -170.753)
(42.4845 -4.42737e-18 -177.624)
(103.318 0 -187.012)
(171.027 -4.17927e-18 -198.419)
(241.977 4.0334e-18 -210.983)
(311.93 -3.87723e-18 -223.659)
(376.413 0 -235.233)
(431.727 3.5551e-18 -244.606)
(474.935 0 -250.969)
(504.717 6.4809e-18 -253.453)
(520.865 0 -252.405)
(524.147 -5.851e-18 -246.927)
(516.435 5.58694e-18 -237.879)
(499.916 0 -225.059)
(476.644 0 -210.695)
(448.813 -4.83344e-18 -195.227)
(418.501 0 -182.009)
(386.941 0 -172.179)
(357.332 -5.38305e-20 -167.486)