/*--------------------------------*- C++ -*----------------------------------*\
| =========                 |                                                 |
| \\      /  F ield         | OpenFOAM: The Open Source CFD Toolbox           |
|  \\    /   O peration     | Version:  2412                                  |
|   \\  /    A nd           | Website:  www.openfoam.com                      |
|    \\/     M anipulation  |                                                 |
\*---------------------------------------------------------------------------*/
FoamFile
{
    version     2.0;
    format      ascii;
    arch        "LSB;label=32;scalar=64";
    class       volVectorField;
    location    "0.875";
    object      U;
}
// * * * * * * * * * * * * * * * * * * * * * * * * * * * * * * * * * * * * * //

dimensions      [0 1 -1 0 0 0 0];

internalField   nonuniform List<vector> 
12600
(
(19.2997 0 -0.652625)
(7.80086 -3.70857e-20 -1.61423)
(3.28992 -1.69366e-20 -1.66339)
(1.6656 0 -1.22283)
(1.04408 -2.24702e-22 -0.811807)
(0.712821 0 -0.547713)
(0.491027 -3.07253e-20 -0.379436)
(0.331005 0 -0.264088)
(0.212109 0 -0.180235)
(0.122241 0 -0.117278)
(0.0525818 0 -0.0701018)
(-0.00173105 -9.74559e-20 -0.0334407)
(-0.0440505 -9.95479e-20 -0.00455775)
(-0.0773906 0 0.0186654)
(-0.103416 2.02358e-19 0.0358858)
(-0.122701 0 0.0501525)
(-0.137772 3.15134e-22 0.0613282)
(-0.148696 0 0.0698217)
(-0.156696 9.74059e-20 0.0761717)
(-0.161929 0 0.0806754)
(-0.164962 0 0.0837101)
(-0.166017 0 0.085497)
(-0.165381 3.60119e-19 0.0864526)
(-0.163468 -3.49551e-19 0.0867201)
(-0.160725 -2.24445e-22 0.086188)
(-0.157427 1.6354e-19 0.0849122)
(-0.15347 0 0.082977)
(-0.148632 0 0.0810965)
(-0.143489 0 0.0788732)
(-0.138202 -2.88656e-19 0.0763419)
(-0.132817 -5.57442e-19 0.0736263)
(-0.127313 0 0.0708295)
(-0.121761 0 0.0679861)
(-0.116269 -2.49858e-19 0.0651039)
(-0.110873 -2.40444e-19 0.0622123)
(-0.105603 0 0.0593608)
(-0.100458 0 0.0565709)
(-0.0954561 -4.27905e-19 0.053851)
(-0.0906531 0 0.0512162)
(-0.08603 7.02767e-23 0.0486586)
(-0.0816001 -3.79087e-19 0.0461959)
(-0.0773537 -3.63942e-19 0.0438291)
(-0.0732486 0 0.0415367)
(-0.0692882 -3.34956e-19 0.0393168)
(-0.0654487 -3.21127e-19 0.037157)
(-0.0617265 6.15664e-19 0.0350585)
(-0.0581393 -5.90088e-19 0.0330335)
(-0.0547236 0 0.0311025)
(-0.0515446 5.41491e-19 0.0293013)
(-0.0486794 -5.18477e-19 0.0276734)
(-0.0461856 0 0.0262527)
(-0.0440993 -2.93859e-23 0.0250611)
(-0.0424107 4.54527e-19 0.0240936)
(-0.0410306 0 0.0233006)
(-0.0397887 -8.31727e-19 0.0225874)
(-0.0383868 0 0.0217868)
(-0.0363938 0 0.0206523)
(-0.0332485 4.14126e-23 0.018827)
(-0.0282786 3.74971e-23 0.0159379)
(-0.0208771 6.62854e-19 0.0116804)
(-0.0107575 -6.32412e-19 0.00591299)
(0.00173198 1.20543e-18 -0.00108438)
(0.0154983 0 -0.00875958)
(0.0285205 1.09093e-18 -0.0161085)
(0.0387917 1.03609e-18 -0.0219558)
(0.0448602 -1.96621e-18 -0.0254684)
(0.0468254 9.32344e-19 -0.0265319)
(0.0454367 0 -0.0257411)
(0.0421815 0 -0.0238939)
(0.0382678 0 -0.0216687)
(0.0351448 0 -0.0199165)
(0.0344212 0 -0.0196108)
(0.0380709 -1.35034e-18 -0.0217998)
(0.0468953 1.28043e-18 -0.0270402)
(0.0582874 0 -0.0338256)
(0.0670045 0 -0.0389076)
(0.0643355 1.09614e-18 -0.037589)
(0.0492448 -1.00935e-22 -0.0292615)
(0.0273813 1.99712e-18 -0.0169246)
(0.0115287 0 -0.0078472)
(0.00846306 0 -0.00600549)
(0.0300051 0 -0.0184291)
(0.0855754 -1.03615e-23 -0.0491466)
(0.13963 0 -0.079268)
(0.145874 0 -0.082324)
(0.115779 1.3316e-18 -0.0633351)
(-0.00319902 8.58627e-22 0.00713199)
(-0.168582 0 0.102191)
(-0.346694 0 0.201529)
(-0.402874 -1.92458e-18 0.230735)
(-0.384903 -1.84582e-18 0.21808)
(-0.119456 -1.84231e-18 0.0626096)
(0.174224 -1.77323e-18 -0.0965715)
(0.764406 7.35335e-22 -0.434666)
(1.02129 2.72328e-21 -0.575494)
(1.3125 8.53508e-19 -0.734634)
(-0.0628414 0 0.0299788)
(-0.0981266 0 0.0506346)
(0.0863753 0 -0.0481553)
(-0.133376 3.09982e-18 0.0736289)
(0.169909 -1.45963e-18 -0.0992066)
(0.169466 1.3738e-18 -0.0976992)
(0.270532 1.27478e-18 -0.155059)
(0.309904 0 -0.174951)
(0.251811 0 -0.135224)
(-0.125232 0 0.0858628)
(-0.682068 9.52418e-19 0.402804)
(-1.25246 0 0.717076)
(-1.62036 -1.1246e-18 0.920704)
(-1.70676 0 0.966228)
(-1.52281 0 0.858132)
(-1.23168 2.51665e-18 0.690714)
(-0.896538 0 0.500455)
(-0.476549 0 0.26291)
(-0.0780681 0 0.0392489)
(0.0739348 -5.17724e-18 -0.0445785)
(0.0840655 0 -0.049434)
(0.156869 4.52286e-18 -0.0891091)
(0.00921972 0 -0.00457264)
(0.0561871 -5.52791e-24 -0.0323196)
(30.8237 -1.54519e-20 -0.995627)
(21.4634 2.12638e-20 -3.39048)
(13.5806 1.33762e-20 -4.27326)
(8.58869 0 -3.69808)
(5.71269 -1.26739e-20 -2.78273)
(3.97788 2.3159e-20 -2.03406)
(2.85248 3.20514e-20 -1.48848)
(2.0684 -3.73267e-20 -1.08965)
(1.49362 0 -0.790272)
(1.05847 0 -0.56021)
(0.721681 0 -0.381473)
(0.457742 0 -0.240152)
(0.248936 0 -0.12739)
(0.080945 0 -0.0367123)
(-0.0514757 -7.19793e-22 0.0369046)
(-0.156298 0 0.0946823)
(-0.241025 1.04217e-19 0.140806)
(-0.30695 0 0.177439)
(-0.358591 -2.02436e-19 0.206028)
(-0.397615 1.98937e-19 0.227679)
(-0.426372 0 0.243707)
(-0.44621 1.91038e-19 0.254935)
(-0.458812 -1.869e-19 0.261914)
(-0.465632 1.81335e-19 0.26555)
(-0.467761 -1.75402e-19 0.266165)
(-0.465861 0 0.264668)
(-0.460138 1.64829e-19 0.261457)
(-0.45164 0 0.256431)
(-0.441013 0 0.250536)
(-0.428788 0 0.243602)
(-0.415341 2.88244e-19 0.23593)
(-0.400936 0 0.227808)
(-0.385893 0 0.219373)
(-0.370506 0 0.210695)
(-0.354941 0 0.201886)
(-0.339409 0 0.193111)
(-0.324028 0 0.184436)
(-0.308887 4.40261e-19 0.175908)
(-0.294152 0 0.16759)
(-0.2798 8.10903e-19 0.159467)
(-0.265907 7.77894e-19 0.151604)
(-0.252493 3.7297e-19 0.144002)
(-0.239448 0 0.136601)
(-0.22678 0 0.129402)
(-0.214426 6.56406e-19 0.12237)
(-0.20239 -6.28632e-19 0.115519)
(-0.190741 6.01727e-19 0.108893)
(-0.179604 0 0.102571)
(-0.169189 -5.50962e-19 0.0966743)
(-0.159749 0 0.0913484)
(-0.151483 0 0.0867034)
(-0.14452 -4.81699e-19 0.0828089)
(-0.13884 0 0.0796385)
(-0.134166 0 0.0770156)
(-0.129958 8.40338e-19 0.0746034)
(-0.125261 0 0.0718289)
(-0.118691 0 0.0678793)
(-0.108406 7.06506e-23 0.0616608)
(-0.0922651 6.97719e-19 0.0519594)
(-0.0683636 -5.63338e-23 0.0377613)
(-0.0357825 0 0.0186598)
(0.00438689 -1.20639e-18 -0.00444801)
(0.0486619 -1.1468e-18 -0.029772)
(0.0908318 0 -0.0537548)
(0.124436 -2.06503e-18 -0.0726702)
(0.144644 -1.00625e-22 -0.0838498)
(0.151292 0 -0.0872579)
(0.146932 8.77006e-19 -0.0843693)
(0.136312 0 -0.0780784)
(0.123625 0 -0.0707746)
(0.113912 0 -0.0654204)
(0.112799 0 -0.0651763)
(0.126719 2.65932e-18 -0.0736682)
(0.158226 -1.25888e-18 -0.0922863)
(0.198672 0 -0.115831)
(0.231094 0 -0.133733)
(0.22736 1.07269e-18 -0.130347)
(0.183001 -1.65705e-22 -0.103948)
(0.114713 -2.29587e-22 -0.064496)
(0.0624728 0 -0.0351307)
(0.0488314 0 -0.029)
(0.111983 0 -0.0686105)
(0.280458 -9.22665e-24 -0.166398)
(0.44573 -1.50319e-18 -0.259465)
(0.45484 1.39649e-18 -0.261343)
(0.328607 -1.2866e-18 -0.182861)
(-0.0875797 1.3577e-21 0.0639016)
(-0.63068 -1.04922e-18 0.379239)
(-1.17082 0 0.686436)
(-1.31839 1.84986e-18 0.761308)
(-1.23301 0 0.700387)
(-0.33863 1.76645e-18 0.17154)
(0.471167 0 -0.303617)
(2.44783 -2.86278e-18 -1.43746)
(3.10295 -1.33085e-18 -1.81519)
(4.06304 0 -2.30325)
(-0.0261473 0 0.0641107)
(-0.205892 -1.76291e-18 0.112841)
(0.257791 1.39638e-18 -0.147284)
(-0.372636 -2.94409e-18 0.212528)
(0.575304 1.38626e-18 -0.342142)
(0.567197 -1.30357e-18 -0.330391)
(0.884696 0 -0.514265)
(0.926584 1.10624e-18 -0.53643)
(0.602439 0 -0.335747)
(-0.687641 0 0.424294)
(-2.42797 -9.05677e-19 1.4365)
(-4.07782 0 2.38098)
(-5.03585 6.44769e-21 2.9241)
(-5.13848 1.49103e-18 2.97149)
(-4.47671 0 2.57875)
(-3.57043 0 2.05013)
(-2.58907 0 1.47711)
(-1.33283 2.64994e-18 0.748599)
(-0.154237 -5.21644e-18 0.0737695)
(0.287481 4.86707e-18 -0.169678)
(0.296868 0 -0.173831)
(0.490498 -4.2481e-18 -0.281223)
(0.0186848 0 -0.00804432)
(0.188979 7.31486e-18 -0.110264)
(34.4297 3.29112e-20 -0.858769)
(29.8493 -8.75732e-21 -2.97085)
(23.2786 -3.56418e-21 -4.6755)
(17.0802 0 -5.03893)
(12.2962 -1.49363e-20 -4.50281)
(8.93311 5.91894e-22 -3.68021)
(6.59806 0 -2.89718)
(4.92917 3.54285e-20 -2.24388)
(3.6944 0 -1.71774)
(2.75488 4.27571e-20 -1.29569)
(2.02506 0 -0.955546)
(1.44902 0 -0.680169)
(0.989447 0 -0.456211)
(0.61858 0 -0.273817)
(0.321869 -9.92199e-20 -0.121215)
(0.0808881 0 -0.000330834)
(-0.113941 0 0.099143)
(-0.270029 0 0.179048)
(-0.395294 9.59112e-20 0.243372)
(-0.493697 -4.86926e-22 0.294341)
(-0.570016 0 0.334138)
(-0.627616 -6.9131e-22 0.364289)
(-0.6697 0 0.385937)
(-0.698935 -1.70871e-19 0.400567)
(-0.717203 0 0.409339)
(-0.726683 0 0.412768)
(-0.728342 -1.56347e-19 0.412491)
(-0.723815 0 0.408366)
(-0.713835 0 0.402315)
(-0.700046 -2.82737e-19 0.393878)
(-0.682996 0 0.383897)
(-0.663417 0 0.372746)
(-0.641993 0 0.360686)
(-0.619279 0 0.347917)
(-0.595648 2.34716e-19 0.334667)
(-0.571558 0 0.321235)
(-0.547318 0 0.307745)
(-0.523136 -4.16779e-19 0.294316)
(-0.499326 0 0.281076)
(-0.475904 -7.6774e-19 0.268023)
(-0.453035 -8.2381e-23 0.255288)
(-0.430805 -3.53109e-19 0.242873)
(-0.409061 0 0.230701)
(-0.387831 0 0.218789)
(-0.367036 -3.10545e-19 0.207092)
(-0.346692 0 0.195649)
(-0.326931 -5.69209e-19 0.184554)
(-0.30797 0 0.17395)
(-0.290173 6.16697e-23 0.164059)
(-0.273973 0 0.155126)
(-0.259724 0 0.147336)
(-0.247658 0 0.1408)
(-0.23776 -4.34908e-19 0.135456)
(-0.229579 0 0.130984)
(-0.222212 0 0.12678)
(-0.214062 0 0.12184)
(-0.202793 0 0.114769)
(-0.18529 1.3804e-18 0.103776)
(-0.157965 0 0.0868559)
(-0.117645 -4.68594e-23 0.0623532)
(-0.0627607 0 0.029708)
(0.00492248 5.68843e-19 -0.00951942)
(0.0796779 1.08126e-18 -0.052256)
(0.151348 0 -0.0923477)
(0.209011 1.94626e-18 -0.123726)
(0.244255 9.21819e-19 -0.142041)
(0.256275 0 -0.147506)
(0.249393 -8.25924e-19 -0.142217)
(0.231585 0 -0.13132)
(0.210304 0 -0.119145)
(0.194485 0 -0.111018)
(0.194168 0 -0.112259)
(0.220181 2.55085e-23 -0.129196)
(0.276855 1.18387e-18 -0.163517)
(0.349543 0 -0.205848)
(0.409817 0 -0.238219)
(0.410025 -9.51956e-23 -0.234249)
(0.340714 -1.91797e-18 -0.191523)
(0.228022 -9.1505e-19 -0.126656)
(0.137826 0 -0.0774857)
(0.109169 0 -0.0665594)
(0.206127 0 -0.131822)
(0.476151 -3.01432e-18 -0.290031)
(0.743879 -3.13519e-22 -0.435121)
(0.745816 -1.31002e-18 -0.422155)
(0.497777 0 -0.257294)
(-0.241541 -1.08893e-18 0.189919)
(-1.16542 9.83639e-19 0.725916)
(-2.02989 0 1.2035)
(-2.23762 0 1.2884)
(-2.06875 1.65606e-18 1.14771)
(-0.530439 0 0.225993)
(0.62449 1.59182e-18 -0.466175)
(4.09197 -9.62452e-22 -2.44354)
(4.93221 1.25321e-18 -2.89846)
(6.69533 -7.76729e-19 -3.70586)
(0.227819 0 0.0238721)
(-0.212819 1.64981e-18 0.103863)
(0.422874 -1.30659e-18 -0.234113)
(-0.564058 2.7516e-18 0.308739)
(0.998153 0 -0.609372)
(0.980547 -1.21923e-18 -0.575738)
(1.49783 0 -0.873307)
(1.46711 -1.03441e-18 -0.833675)
(0.755013 8.37736e-19 -0.366348)
(-1.498 0 0.980923)
(-4.35013 8.46579e-19 2.63166)
(-6.88416 0 4.04616)
(-8.20333 1.96639e-18 4.74615)
(-8.16631 -1.39333e-18 4.67343)
(-6.99891 0 3.95843)
(-5.53479 0 3.10624)
(-4.0055 0 2.21751)
(-2.01725 -2.48651e-21 1.07266)
(-0.151189 4.87256e-18 0.0293097)
(0.539496 -4.54461e-18 -0.326115)
(0.529658 0 -0.313271)
(0.808025 -3.96821e-18 -0.45535)
(0.0218492 0 -0.00252918)
(0.333071 5.05041e-24 -0.196557)
(35.0487 -1.72957e-20 -1.05601)
(33.7494 -4.98454e-21 -2.30654)
(29.9237 7.19416e-21 -4.08685)
(24.7885 -1.49354e-20 -5.22346)
(19.6342 -2.10814e-20 -5.42285)
(15.2188 -4.40688e-20 -4.97495)
(11.7307 0 -4.25781)
(9.05213 0 -3.50624)
(6.99309 0 -2.82061)
(5.39146 -4.0501e-20 -2.22882)
(4.1288 0 -1.72926)
(3.12124 0 -1.31113)
(2.30973 0 -0.962106)
(1.65028 0 -0.671575)
(1.11427 0 -0.427504)
(0.676253 -9.29293e-20 -0.227186)
(0.318412 9.23982e-20 -0.0595596)
(0.026253 0 0.0770926)
(-0.211215 0 0.189489)
(-0.402449 -1.78367e-19 0.280475)
(-0.555131 1.74411e-19 0.353664)
(-0.675129 -1.7103e-19 0.411257)
(-0.767452 1.66028e-19 0.455719)
(-0.836908 1.61804e-19 0.4888)
(-0.887045 -1.57242e-19 0.512389)
(-0.921097 1.52983e-19 0.527506)
(-0.940772 0 0.536097)
(-0.949253 -1.43457e-19 0.537865)
(-0.948972 0 0.534156)
(-0.940585 2.67598e-19 0.527641)
(-0.925902 0 0.51804)
(-0.906193 0 0.506211)
(-0.88262 0 0.492571)
(-0.856125 -2.30745e-19 0.477457)
(-0.827386 -2.22032e-19 0.46126)
(-0.797185 0 0.444439)
(-0.7661 0 0.427208)
(-0.734524 3.94114e-19 0.409782)
(-0.702967 0 0.392373)
(-0.671545 1.05581e-22 0.375014)
(-0.640541 -3.48005e-19 0.357919)
(-0.610146 0 0.341104)
(-0.580206 0 0.324489)
(-0.550787 0 0.308117)
(-0.521818 0 0.291953)
(-0.493347 -5.61519e-19 0.276072)
(-0.46558 0 0.260629)
(-0.438839 5.14168e-19 0.245843)
(-0.413642 4.91819e-19 0.232039)
(-0.390613 0 0.219568)
(-0.370271 0 0.208687)
(-0.352962 0 0.199544)
(-0.338683 4.10316e-19 0.192031)
(-0.32682 -3.91857e-19 0.185676)
(-0.316113 -7.48338e-19 0.179599)
(-0.304332 0 0.17235)
(-0.288219 -6.81787e-19 0.161934)
(-0.263453 -1.30102e-18 0.145806)
(-0.225054 0 0.121208)
(-0.168602 -1.18256e-18 0.0859466)
(-0.0918832 0 0.0393998)
(0.00278855 -5.35723e-19 -0.0160942)
(0.107689 -1.01817e-18 -0.0760154)
(0.208856 0 -0.131895)
(0.29107 -9.16002e-19 -0.175389)
(0.342224 -8.67662e-19 -0.200567)
(0.360636 0 -0.207729)
(0.351925 0 -0.199984)
(0.327408 0 -0.184584)
(0.298077 6.94997e-19 -0.16791)
(0.277076 6.57114e-19 -0.157828)
(0.279006 0 -0.162019)
(0.319039 -1.17534e-18 -0.189269)
(0.403214 -1.11221e-18 -0.241276)
(0.511143 0 -0.304091)
(0.603586 0 -0.352151)
(0.613425 -9.46396e-19 -0.348777)
(0.524582 1.61583e-22 -0.290909)
(0.370492 0 -0.201488)
(0.240839 0 -0.132446)
(0.191885 0 -0.115862)
(0.312837 0 -0.205208)
(0.669321 -2.16388e-23 -0.418074)
(1.02651 1.32271e-18 -0.605707)
(1.00843 0 -0.564975)
(0.609314 0 -0.290661)
(-0.47661 0 0.375777)
(-1.77313 9.23324e-19 1.12761)
(-2.90646 0 1.7397)
(-3.13632 1.62135e-18 1.80498)
(-2.86933 -1.55083e-18 1.56162)
(-0.692989 1.54443e-18 0.246261)
(0.583918 -1.49021e-18 -0.564728)
(5.66744 2.51319e-18 -3.45339)
(6.37915 -1.17284e-18 -3.80669)
(9.16764 7.268e-19 -5.01665)
(0.734064 0 -0.0950291)
(-0.109058 0 0.0431348)
(0.58843 -1.2237e-18 -0.319502)
(-0.699774 -1.28608e-18 0.374048)
(1.43101 -1.21189e-18 -0.89463)
(1.40559 1.34192e-23 -0.831416)
(2.09194 0 -1.22436)
(1.90479 0 -1.06946)
(0.672914 -7.83031e-19 -0.255594)
(-2.57083 0 1.70613)
(-6.41284 -7.9607e-19 3.9324)
(-9.57366 0 5.6725)
(-10.9906 -6.37693e-21 6.38307)
(-10.6777 0 6.1072)
(-9.01057 -1.71101e-18 5.07922)
(-7.07707 2.04578e-18 3.94918)
(-5.10854 2.2548e-18 2.79252)
(-2.52145 -2.85122e-21 1.29309)
(-0.0677939 0 -0.0673922)
(0.82795 4.2441e-18 -0.503299)
(0.780325 4.02451e-18 -0.462464)
(1.10341 3.70538e-18 -0.615799)
(0.0216205 0 0.00650507)
(0.492581 4.07871e-24 -0.294203)
(34.696 0 -1.54374)
(34.8201 -3.63444e-21 -2.0943)
(33.3271 0 -3.41449)
(30.2024 1.4111e-20 -4.73549)
(26.0845 3.32693e-20 -5.51057)
(21.7346 2.14547e-20 -5.63679)
(17.7033 0 -5.28133)
(14.2389 0 -4.66967)
(11.372 -3.48602e-20 -3.97462)
(9.0351 -3.7671e-20 -3.29451)
(7.13585 3.98414e-20 -2.67336)
(5.58834 8.29101e-20 -2.12521)
(4.32226 8.51989e-20 -1.65003)
(3.28127 0 -1.24283)
(2.4242 0 -0.894063)
(1.71672 1.75334e-19 -0.60021)
(1.13213 -3.38433e-22 -0.351518)
(0.649805 0 -0.143698)
(0.252721 -8.51392e-20 0.0300646)
(-0.0723847 -1.67576e-19 0.173513)
(-0.336811 -1.64892e-19 0.29127)
(-0.549996 0 0.386297)
(-0.719495 -1.56951e-19 0.462051)
(-0.852436 1.52623e-19 0.520936)
(-0.953982 1.48627e-19 0.565629)
(-1.02859 1.77548e-23 0.598988)
(-1.08082 0 0.622545)
(-1.1149 1.72325e-22 0.636501)
(-1.13361 0 0.641571)
(-1.14007 2.52438e-19 0.639159)
(-1.13536 0 0.633323)
(-1.1219 0 0.623686)
(-1.10159 0 0.610906)
(-1.07585 2.1794e-19 0.595594)
(-1.0458 0 0.578309)
(-1.01263 0 0.559708)
(-0.977316 0 0.540114)
(-0.940493 0 0.519871)
(-0.902943 -3.56816e-19 0.499293)
(-0.864946 6.84686e-19 0.478472)
(-0.826947 0 0.457728)
(-0.789296 3.14713e-19 0.437098)
(-0.751877 0 0.41652)
(-0.714827 0 0.396082)
(-0.678116 0 0.375771)
(-0.641841 9.28663e-23 0.355721)
(-0.606299 0 0.336155)
(-0.571926 -4.84807e-19 0.317385)
(-0.539403 0 0.299848)
(-0.50955 0 0.283999)
(-0.48306 -4.23495e-19 0.270168)
(-0.460405 0 0.258529)
(-0.441606 0 0.248919)
(-0.425903 3.92243e-23 0.240694)
(-0.411694 7.04845e-19 0.232674)
(-0.39614 0 0.222946)
(-0.375091 6.68819e-23 0.208907)
(-0.343064 1.22466e-18 0.187296)
(-0.293756 0 0.154647)
(-0.221569 5.56422e-19 0.108299)
(-0.123645 0 0.0476792)
(-0.00273572 5.03982e-19 -0.0240473)
(0.131685 9.57676e-19 -0.10084)
(0.262199 0 -0.171988)
(0.369495 8.61402e-19 -0.227027)
(0.437669 -8.84992e-23 -0.258585)
(0.463727 0 -0.267194)
(0.454294 0 -0.256957)
(0.423959 0 -0.237268)
(0.387464 -1.30581e-18 -0.216698)
(0.362369 6.1454e-23 -0.205833)
(0.367998 0 -0.214676)
(0.423614 1.10352e-18 -0.254306)
(0.537106 2.08799e-18 -0.325882)
(0.68274 0 -0.410702)
(0.811365 0 -0.475772)
(0.836874 0 -0.474456)
(0.734562 1.63911e-22 -0.403075)
(0.542391 0 -0.290532)
(0.371595 0 -0.201758)
(0.296462 0 -0.17831)
(0.43061 0 -0.28876)
(0.856608 1.32464e-18 -0.548546)
(1.28878 1.24009e-18 -0.765993)
(1.23766 0 -0.680806)
(0.660027 0 -0.270009)
(-0.789792 0 0.631382)
(-2.4396 8.58713e-22 1.58378)
(-3.77809 0 2.28105)
(-3.99561 -1.51782e-18 2.29289)
(-3.62311 0 1.92418)
(-0.837998 -1.4454e-18 0.233475)
(0.328369 0 -0.588789)
(7.15576 -1.17619e-18 -4.4494)
(7.3453 0 -4.45214)
(11.4875 0 -6.1979)
(1.49391 0 -0.294485)
(0.101904 0 -0.0719726)
(0.768505 1.14422e-18 -0.404205)
(-0.783454 0 0.398488)
(1.86359 1.13293e-18 -1.19324)
(1.83837 1.06559e-18 -1.095)
(2.65171 0 -1.55412)
(2.23126 0 -1.2168)
(0.368049 0 0.0338345)
(-3.86294 0 2.61601)
(-8.5376 -2.05051e-21 5.3087)
(-12.0532 0 7.18662)
(-13.3416 -1.69352e-18 7.73823)
(-12.6789 0 7.18809)
(-10.5676 3.18842e-18 5.87224)
(-8.26288 -1.91072e-18 4.52854)
(-5.94333 -2.10581e-18 3.16303)
(-2.89603 -2.15432e-18 1.3963)
(0.0733225 0 -0.220864)
(1.14457 0 -0.701894)
(1.04525 -7.51525e-18 -0.620482)
(1.37963 3.46054e-18 -0.756966)
(0.0246175 3.20379e-18 0.017379)
(0.671179 -2.97686e-18 -0.405881)
(34.2431 0 -2.0044)
(34.6524 3.31726e-20 -2.22225)
(34.4557 0 -3.00758)
(33.1007 0 -4.10121)
(30.5638 0 -5.07808)
(27.2117 0 -5.65279)
(23.5196 0 -5.75948)
(19.878 3.01899e-20 -5.48524)
(16.53 3.28934e-20 -4.97087)
(13.5847 7.09782e-20 -4.3433)
(11.0593 -7.49972e-20 -3.69062)
(8.92281 -7.82552e-20 -3.06385)
(7.12678 -8.04204e-20 -2.48787)
(5.62035 0 -1.97282)
(4.35897 0 -1.5182)
(3.30346 -1.64773e-19 -1.12396)
(2.42072 -1.64009e-19 -0.783595)
(1.68384 0 -0.493079)
(1.07002 8.03683e-20 -0.24626)
(0.561079 1.58182e-19 -0.0382967)
(0.140821 0 0.135281)
(-0.203566 1.51202e-19 0.278715)
(-0.483142 0 0.395747)
(-0.707878 -9.39689e-23 0.489904)
(-0.885478 -1.40255e-19 0.564338)
(-1.02303 -1.17082e-22 0.621832)
(-1.12656 0 0.664848)
(-1.20124 1.27753e-19 0.696038)
(-1.25245 -2.46318e-19 0.716576)
(-1.28392 -4.76113e-19 0.726165)
(-1.29916 -2.29779e-19 0.726317)
(-1.30041 0 0.721783)
(-1.29027 -2.13371e-19 0.712802)
(-1.27115 0 0.69972)
(-1.24469 0 0.683488)
(-1.21266 0 0.664973)
(-1.17652 0 0.644628)
(-1.13727 0 0.622955)
(-1.09606 1.21911e-22 0.600395)
(-1.05339 -3.22634e-19 0.57712)
(-1.00995 0 0.553582)
(-0.9663 -5.93072e-19 0.529858)
(-0.922421 0 0.505917)
(-0.878556 0 0.481912)
(-0.834757 0 0.457873)
(-0.791196 4.98759e-19 0.434008)
(-0.74828 0 0.410632)
(-0.706574 0 0.388155)
(-0.666926 0 0.367136)
(-0.630361 0 0.348141)
(-0.597756 7.97234e-19 0.331562)
(-0.569716 0 0.317596)
(-0.546306 0 0.306004)
(-0.526637 3.47298e-19 0.295952)
(-0.508787 0 0.285941)
(-0.489341 0 0.273574)
(-0.463303 1.20733e-18 0.255637)
(-0.424101 -5.75789e-19 0.228172)
(-0.364193 0 0.187073)
(-0.276866 0 0.129326)
(-0.158621 0 0.0545234)
(-0.0125101 -4.73606e-19 -0.0332628)
(0.150515 0 -0.126468)
(0.309999 0 -0.212247)
(0.442801 -1.61837e-18 -0.278214)
(0.52916 1.53237e-18 -0.315733)
(0.564379 0 -0.325632)
(0.555707 0 -0.31302)
(0.520852 0 -0.289428)
(0.478412 6.12835e-19 -0.265762)
(0.450518 -5.79216e-19 -0.255434)
(0.461263 -1.09496e-18 -0.270639)
(0.533641 -1.03523e-18 -0.324497)
(0.677552 -9.7922e-19 -0.417249)
(0.862624 9.26695e-19 -0.525299)
(1.03121 0 -0.608426)
(1.07897 0 -0.610531)
(0.970243 7.91157e-19 -0.527375)
(0.744297 0 -0.392983)
(0.53108 0 -0.284225)
(0.423333 0 -0.252448)
(0.558302 0 -0.381088)
(1.03478 0 -0.679308)
(1.52466 -2.32307e-18 -0.912774)
(1.4256 0 -0.765541)
(0.642857 -9.96272e-19 -0.191646)
(-1.17998 0 0.955724)
(-3.14954 8.09644e-22 2.08313)
(-4.61888 1.47207e-18 2.81118)
(-4.79318 0 2.74339)
(-4.31528 0 2.22864)
(-0.973354 0 0.199537)
(-0.120352 0 -0.555509)
(8.52036 1.10177e-18 -5.41069)
(7.7139 0 -4.78764)
(13.6162 0 -7.27199)
(2.49358 0 -0.563155)
(0.422845 0 -0.233035)
(0.972747 0 -0.494586)
(-0.809702 0 0.385696)
(2.28413 0 -1.49936)
(2.27452 0 -1.36362)
(3.15978 -9.24246e-19 -1.851)
(2.42575 0 -1.26951)
(-0.165651 0 0.488923)
(-5.34078 0 3.67211)
(-10.6395 6.96706e-19 6.69894)
(-14.2199 0 8.52817)
(-15.1851 7.87998e-19 8.80676)
(-14.1521 0 7.97763)
(-11.6872 -8.45825e-21 6.42457)
(-9.11446 0 4.9238)
(-6.52298 1.95765e-18 3.38434)
(-3.17375 0 1.43014)
(0.254304 0 -0.410849)
(1.4842 0 -0.914897)
(1.3223 3.50807e-18 -0.784022)
(1.63714 -6.46181e-18 -0.882735)
(0.0370265 -5.98185e-18 0.0247713)
(0.871464 -2.77887e-18 -0.533721)
(33.9126 0 -2.29746)
(34.2082 -3.55767e-20 -2.43399)
(34.4435 0 -2.87001)
(34.1273 0 -3.6278)
(32.949 -2.73475e-20 -4.50814)
(30.9006 -2.68423e-20 -5.25836)
(28.1772 2.77078e-20 -5.71012)
(25.0535 -8.72678e-20 -5.81415)
(21.801 0 -5.61138)
(18.6361 2.60309e-23 -5.18719)
(15.7 3.52383e-20 -4.63257)
(13.0633 0 -4.02211)
(10.7461 0 -3.40747)
(8.73715 0 -2.82106)
(7.01119 0 -2.27888)
(5.53748 3.18503e-22 -1.79048)
(4.28455 2.71503e-22 -1.35676)
(3.22355 7.62376e-20 -0.977165)
(2.32832 7.52964e-20 -0.648)
(1.57639 0 -0.36539)
(0.947647 -1.45351e-19 -0.125177)
(0.425359 -1.42512e-19 0.0775291)
(-0.00559052 0 0.246077)
(-0.35805 -1.26029e-22 0.384994)
(-0.642969 1.41067e-22 0.497822)
(-0.870084 -1.28489e-19 0.588051)
(-1.04802 0 0.65857)
(-1.18431 0 0.711883)
(-1.28514 2.32083e-19 0.750754)
(-1.35601 1.87111e-22 0.778576)
(-1.40286 4.32772e-19 0.793073)
(-1.42893 0 0.797127)
(-1.43822 4.01827e-19 0.794405)
(-1.43315 0 0.786598)
(-1.4166 0 0.773873)
(-1.39097 -1.78717e-19 0.757637)
(-1.35841 0 0.738446)
(-1.3204 -3.29776e-19 0.716989)
(-1.27854 1.19442e-22 0.693866)
(-1.23372 3.03531e-19 0.669347)
(-1.18688 0 0.644054)
(-1.13891 7.60269e-23 0.618116)
(-1.08994 0 0.591558)
(-1.04039 0 0.564618)
(-0.990423 0 0.537389)
(-0.940327 0 0.510176)
(-0.890644 0 0.483397)
(-0.842081 4.29219e-19 0.457581)
(-0.795662 0 0.433415)
(-0.752625 0 0.411577)
(-0.71404 -3.74791e-19 0.392518)
(-0.680659 0 0.376444)
(-0.652607 -3.41844e-19 0.363025)
(-0.628886 -3.26362e-19 0.351219)
(-0.607286 6.22992e-19 0.339187)
(-0.583856 0 0.324036)
(-0.552818 -5.67156e-19 0.301946)
(-0.506599 -5.40804e-19 0.268288)
(-0.436523 0 0.218392)
(-0.334853 0 0.149001)
(-0.197444 0 0.0599967)
(-0.0274913 4.44688e-19 -0.0435565)
(0.162897 0 -0.152574)
(0.350708 0 -0.252229)
(0.509328 7.59488e-19 -0.328417)
(0.615144 -1.43816e-18 -0.371415)
(0.661349 0 -0.382424)
(0.655315 0 -0.367667)
(0.617628 0 -0.34074)
(0.570771 0 -0.314955)
(0.541424 -5.43273e-19 -0.306653)
(0.558465 1.02664e-18 -0.329873)
(0.648126 0 -0.399598)
(0.822618 0 -0.514732)
(1.04792 -8.68501e-19 -0.646838)
(1.25976 0 -0.748882)
(1.33671 -7.79466e-19 -0.755916)
(1.2297 7.40818e-19 -0.662932)
(0.975314 0 -0.508204)
(0.71882 0 -0.37939)
(0.572009 0 -0.337298)
(0.694649 0 -0.480726)
(1.20102 0 -0.808187)
(1.72913 1.08743e-18 -1.04202)
(1.56635 0 -0.812408)
(0.55429 1.86562e-18 -0.0492593)
(-1.64084 0 1.34832)
(-3.88169 7.36954e-22 2.61278)
(-5.40201 -1.24549e-22 3.31252)
(-5.51624 0 3.14268)
(-4.93772 1.26372e-18 2.46819)
(-1.10705 0 0.152974)
(-0.683018 0 -0.512664)
(9.69554 -2.06095e-18 -6.29113)
(7.40641 0 -4.76261)
(15.525 0 -8.23462)
(3.70207 0 -0.883082)
(0.850234 0 -0.443265)
(1.21413 0 -0.592933)
(-0.777416 0 0.330802)
(2.68098 0 -1.80669)
(2.7088 0 -1.63369)
(3.60067 8.63472e-19 -2.10204)
(2.47836 0 -1.20779)
(-0.909693 0 1.11707)
(-6.94436 0 4.84909)
(-12.6214 -6.53085e-19 8.04244)
(-15.995 -5.71764e-19 9.63936)
(-16.5312 -7.22634e-19 9.56173)
(-15.1841 1.02377e-18 8.46926)
(-12.469 -8.30889e-21 6.74254)
(-9.71324 -1.64764e-18 5.13873)
(-6.90227 -3.65108e-18 3.46122)
(-3.40764 0 1.40956)
(0.44357 3.69509e-18 -0.625994)
(1.83808 3.45191e-18 -1.13942)
(1.60907 0 -0.951427)
(1.88159 3.01626e-18 -0.992725)
(0.0664873 2.79198e-18 0.0246077)
(1.09431 2.59386e-18 -0.678852)
(33.6684 0 -2.45749)
(33.8244 1.76227e-20 -2.60286)
(34.0719 0 -2.88177)
(34.1572 0 -3.37611)
(33.7962 2.57506e-20 -4.04304)
(32.8175 2.52696e-20 -4.74682)
(31.1871 -2.60797e-20 -5.33776)
(28.9841 8.43699e-20 -5.70892)
(26.3603 0 -5.81706)
(23.4964 3.18691e-20 -5.6758)
(20.5667 -6.6027e-20 -5.33428)
(17.7138 0 -4.85482)
(15.0377 7.01731e-20 -4.2967)
(12.5959 0 -3.70878)
(10.4128 7.21306e-20 -3.12527)
(8.48986 7.26375e-20 -2.57028)
(6.8143 7.23706e-20 -2.05683)
(5.36669 -7.17649e-20 -1.59218)
(4.12455 -1.41555e-19 -1.17833)
(3.06553 0 -0.814707)
(2.16793 1.36823e-19 -0.499116)
(1.41209 0 -0.227886)
(0.779976 0 0.00234379)
(0.255376 -1.2758e-19 0.195879)
(-0.175989 2.48348e-19 0.356496)
(-0.52693 0 0.488037)
(-0.808907 0 0.593912)
(-1.03187 0 0.677459)
(-1.20456 -2.17964e-19 0.741556)
(-1.33458 2.10792e-19 0.788939)
(-1.42801 -1.68188e-22 0.823862)
(-1.49238 1.96071e-19 0.844237)
(-1.53159 -3.77773e-19 0.853)
(-1.55075 1.81691e-19 0.8524)
(-1.5521 -1.74762e-19 0.846377)
(-1.53968 7.67407e-23 0.834896)
(-1.51638 0 0.819054)
(-1.48433 3.10158e-19 0.799741)
(-1.44576 2.97594e-19 0.777723)
(-1.40202 -2.85429e-19 0.753394)
(-1.35446 0 0.727582)
(-1.30437 2.62309e-19 0.700493)
(-1.25216 2.51226e-19 0.672223)
(-1.19842 2.40573e-19 0.643125)
(-1.14354 2.3029e-19 0.613377)
(-1.08794 0 0.583401)
(-1.03234 0 0.553741)
(-0.977608 -7.33589e-23 0.525054)
(-0.924953 0 0.498167)
(-0.875831 0 0.473871)
(-0.83152 -3.51971e-19 0.452669)
(-0.792929 3.36179e-19 0.434769)
(-0.760265 3.21052e-19 0.419728)
(-0.732452 4.04554e-23 0.406276)
(-0.707026 -7.65527e-23 0.392219)
(-0.67956 0 0.374157)
(-0.64357 0 0.347671)
(-0.590591 1.01518e-18 0.307511)
(-0.510935 0 0.248525)
(-0.395938 0 0.167332)
(-0.240811 -4.3869e-19 0.0642209)
(-0.04872 0 -0.0546767)
(0.167435 0 -0.17877)
(0.38263 7.51839e-19 -0.291429)
(0.567217 -7.12421e-19 -0.377045)
(0.693798 1.34877e-18 -0.425009)
(0.753039 0 -0.437011)
(0.751892 -6.0336e-19 -0.420444)
(0.713452 0 -0.390855)
(0.663938 0 -0.364043)
(0.634535 1.0183e-18 -0.359139)
(0.658571 0 -0.39198)
(0.76518 0 -0.478821)
(0.969247 0 -0.617023)
(1.23442 0 -0.773548)
(1.49214 0 -0.895148)
(1.60558 7.29918e-19 -0.908594)
(1.50957 -1.91413e-22 -0.808054)
(1.23349 -6.60839e-19 -0.634678)
(0.933909 6.31167e-19 -0.485714)
(0.741307 0 -0.431874)
(0.838343 0 -0.585944)
(1.35311 0 -0.933047)
(1.8977 0 -1.15008)
(1.65411 0 -0.815937)
(0.39247 9.35206e-22 0.161452)
(-2.16279 0 1.80472)
(-4.61117 -7.10223e-19 3.15607)
(-6.10279 -2.93677e-22 3.76859)
(-6.15738 0 3.48666)
(-5.4877 -1.18157e-18 2.64123)
(-1.24198 0 0.0984011)
(-1.23509 1.14006e-18 -0.531475)
(10.5751 -4.8713e-22 -7.01563)
(6.39765 0 -4.37117)
(17.1853 0 -9.10021)
(5.08157 0 -1.23319)
(1.39414 0 -0.681635)
(1.50254 9.37117e-19 -0.703178)
(-0.682306 0 0.235154)
(3.04342 0 -2.10927)
(3.13438 8.6889e-19 -1.90052)
(3.96006 0 -2.29438)
(2.37769 -7.44054e-19 -1.02223)
(-1.84407 6.07963e-19 1.90501)
(-8.60912 0 6.10209)
(-14.3897 1.21994e-18 9.27494)
(-17.331 4.00369e-21 10.4874)
(-17.4205 1.34215e-18 10.0462)
(-15.8524 -9.55915e-19 8.75406)
(-12.9885 -1.2797e-18 6.90878)
(-10.1133 1.53829e-18 5.23557)
(-7.12249 1.70217e-18 3.43863)
(-3.62741 1.74314e-18 1.36298)
(0.603514 -3.44945e-18 -0.843833)
(2.19691 -3.2223e-18 -1.36964)
(1.90358 -3.05647e-18 -1.12049)
(2.11801 -2.8164e-18 -1.09097)
(0.120419 0 0.0117896)
(1.33858 0 -0.841172)
(33.452 0 -2.55008)
(33.5278 1.90851e-20 -2.70856)
(33.6927 0 -2.93017)
(33.846 0 -3.26992)
(33.8275 0 -3.74352)
(33.4804 0 -4.30755)
(32.6895 2.88256e-20 -4.87558)
(31.4023 -2.72768e-20 -5.35273)
(29.6337 2.93524e-20 -5.66604)
(27.4546 -5.95145e-20 -5.77874)
(24.9741 6.20683e-20 -5.68922)
(22.3188 0 -5.4222)
(19.6136 -6.59659e-20 -5.01709)
(16.9662 0 -4.51867)
(14.4586 -6.78107e-20 -3.9683)
(12.1442 -6.76881e-20 -3.40156)
(10.0511 0 -2.84476)
(8.18796 0 -2.31651)
(6.5502 6.6451e-20 -1.82811)
(5.12548 0 -1.38568)
(3.89706 0 -0.991629)
(2.84661 -1.2542e-19 -0.645364)
(1.95547 0 -0.345187)
(1.20545 0 -0.0879399)
(0.579628 -1.16649e-19 0.129843)
(0.0622063 0 0.311877)
(-0.361186 0 0.461888)
(-0.703379 0 0.58364)
(-0.975825 4.0961e-19 0.680529)
(-1.18867 0 0.755913)
(-1.35104 -1.48643e-22 0.812477)
(-1.47016 -1.59002e-22 0.854224)
(-1.55429 1.77458e-19 0.881453)
(-1.6088 -1.70756e-19 0.895205)
(-1.63935 3.28394e-19 0.896987)
(-1.64886 1.57901e-19 0.893513)
(-1.6421 0 0.883683)
(-1.62213 0 0.868743)
(-1.59192 2.79371e-19 0.849782)
(-1.55347 -2.67959e-19 0.827325)
(-1.50867 0 0.802456)
(-1.45936 0 0.775479)
(-1.40627 -6.72062e-23 0.746585)
(-1.35033 -2.25935e-19 0.716269)
(-1.29219 -2.16261e-19 0.68482)
(-1.23248 -4.13786e-19 0.652801)
(-1.17211 0 0.620901)
(-1.11215 -7.28959e-23 0.589917)
(-1.054 0 0.560829)
(-0.999358 0 0.534544)
(-0.949711 3.30353e-19 0.511609)
(-0.906145 -3.15502e-19 0.492221)
(-0.868974 0 0.475809)
(-0.837081 2.87533e-19 0.460856)
(-0.807799 -7.70791e-23 0.444797)
(-0.776292 0 0.423722)
(-0.735468 0 0.392634)
(-0.676097 -9.52047e-19 0.345712)
(-0.587622 0 0.277417)
(-0.460555 0 0.184369)
(-0.289463 8.22633e-19 0.0673731)
(-0.0773022 0 -0.066312)
(0.162649 0 -0.204613)
(0.403946 -1.40949e-18 -0.329296)
(0.614424 6.67702e-19 -0.423465)
(0.763056 -6.32026e-19 -0.475834)
(0.837575 0 -0.488694)
(0.843905 5.65299e-19 -0.470693)
(0.807097 0 -0.439226)
(0.756863 -5.04894e-19 -0.412514)
(0.72836 -4.76901e-19 -0.412701)
(0.759694 0 -0.456049)
(0.881892 0 -0.560724)
(1.11318 8.04936e-19 -0.722064)
(1.41653 7.61385e-19 -0.902877)
(1.72187 0 -1.04444)
(1.8793 0 -1.06578)
(1.80475 -1.29778e-18 -0.960322)
(1.51546 6.18407e-19 -0.770277)
(1.17428 -1.18093e-18 -0.601324)
(0.930909 0 -0.532455)
(0.988333 0 -0.694754)
(1.48961 0 -1.05184)
(2.02693 0 -1.23341)
(1.68441 0 -0.770539)
(0.158086 8.88992e-22 0.443316)
(-2.73237 0 2.31758)