/*--------------------------------*- C++ -*----------------------------------*\
| =========                 |                                                 |
| \\      /  F ield         | OpenFOAM: The Open Source CFD Toolbox           |
|  \\    /   O peration     | Version:  2412                                  |
|   \\  /    A nd           | Website:  www.openfoam.com                      |
|    \\/     M anipulation  |                                                 |
\*---------------------------------------------------------------------------*/
FoamFile
{
    version     2.0;
    format      ascii;
    arch        "LSB;label=32;scalar=64";
    class       volVectorField;
    location    "0.215";
    object      ddt0(U);
}
// * * * * * * * * * * * * * * * * * * * * * * * * * * * * * * * * * * * * * //

dimensions      [0 1 -2 0 0 0 0];

internalField   nonuniform List<vector> 
12600
(
(12.7822 -1.25651e-17 -51.2339)
(-45.8962 -2.53374e-17 -13.7184)
(-19.546 -3.5717e-17 -5.22858)
(-9.86894 0 -2.91434)
(-5.05714 -4.02817e-17 -1.89452)
(-1.98476 -3.98955e-17 -1.44763)
(-0.0931568 0 -1.13478)
(1.29645 0 -0.815455)
(2.3014 1.42138e-16 -0.675387)
(2.88749 0 -0.657384)
(3.31688 -6.28316e-17 -0.558348)
(3.80194 -5.8593e-17 -0.398315)
(4.19612 5.42848e-17 -0.332332)
(4.31623 0 -0.352624)
(4.27439 4.5768e-17 -0.332667)
(4.26431 0 -0.245214)
(4.26965 -1.50407e-16 -0.171762)
(4.15501 0 -0.159173)
(3.91553 6.10382e-17 -0.164923)
(3.7025 5.46815e-17 -0.131525)
(3.62649 -4.86521e-17 -0.0565892)
(3.62697 -1.63238e-20 0.0194026)
(3.53021 0 0.064515)
(3.16592 6.48947e-17 0.0802233)
(2.48574 0 0.0736302)
(1.5985 0 0.052254)
(0.718354 4.66844e-17 0.0297826)
(0.0441494 0 0.0257287)
(-0.335871 -5.91416e-20 0.0409403)
(-0.488796 -4.27065e-17 0.0671957)
(-0.566557 -4.17873e-17 0.0924991)
(-0.612965 -4.06911e-17 0.100661)
(-0.651377 3.94185e-17 0.116098)
(-0.542092 7.57213e-17 0.134751)
(-0.187445 7.14471e-17 0.186015)
(0.383324 -6.41384e-17 0.268053)
(1.09146 0 0.37099)
(1.5756 4.07204e-17 0.473087)
(1.67513 0 0.520461)
(1.25853 -1.52813e-17 0.514904)
(0.437881 0 0.453752)
(-0.431002 2.03073e-20 0.368097)
(-1.19529 0 0.294136)
(-1.67525 -8.07818e-20 0.246691)
(-2.04655 -1.84602e-17 0.216418)
(-2.34545 2.8611e-17 0.177252)
(-2.76437 -3.75633e-17 0.137428)
(-3.1541 0 0.0630013)
(-3.22266 0 0.0207427)
(-2.94956 -8.03079e-17 0.0304758)
(-2.18491 -1.7078e-16 0.0957908)
(-1.27087 -1.63548e-16 0.205841)
(-0.468397 2.70721e-19 0.301356)
(0.275804 -1.11057e-16 0.363547)
(0.895537 0 0.425707)
(1.7224 2.39425e-17 0.493141)
(2.88002 -4.52901e-17 0.615678)
(3.91209 -1.3019e-16 0.759034)
(4.78087 0 0.85839)
(4.91331 0 0.867434)
(4.14088 0 0.743443)
(2.91158 9.1326e-16 0.513692)
(1.3833 0 0.281453)
(0.0518151 0 0.0906168)
(-0.796287 -1.76478e-15 0.00851351)
(-1.41658 0 0.078912)
(-1.769 0 0.219135)
(-1.93302 0 0.417565)
(-2.1464 1.38905e-15 0.602868)
(-2.11572 -1.37699e-15 0.730933)
(-1.88151 -1.35636e-15 0.759763)
(-1.36935 7.66938e-19 0.610256)
(-0.470234 1.35842e-15 0.415503)
(0.365946 0 0.285345)
(0.665193 -1.35687e-15 0.201206)
(0.396537 0 0.315615)
(-0.388433 0 0.513898)
(-0.75432 0 0.702336)
(-0.743506 1.63989e-18 0.63081)
(-0.678317 -2.77034e-15 0.489766)
(-0.87866 -2.7414e-15 0.45005)
(-1.71939 2.66976e-15 0.506674)
(-3.09971 2.55391e-15 0.59045)
(-4.3977 0 0.765409)
(-5.10826 0 0.855346)
(-4.86878 -4.35251e-15 0.958521)
(-4.63523 8.44255e-15 1.00792)
(-4.43523 -8.27164e-15 1.05644)
(-4.87641 -4.1084e-15 1.12875)
(-5.58951 0 1.1284)
(-5.7596 7.58534e-15 1.1038)
(-5.03969 -3.60517e-15 0.895617)
(-3.69153 3.39315e-15 0.578558)
(-1.91932 -6.32822e-15 0.310573)
(-1.08851 0 0.177862)
(-0.950679 0 0.146143)
(-2.06758 0 0.395635)
(-3.5665 0 0.775732)
(-6.26909 0 1.29494)
(-8.33863 0 1.75045)
(-10.1604 4.54858e-15 2.20107)
(-11.5191 9.36363e-15 2.3869)
(-11.9668 9.03079e-15 2.53307)
(-11.6248 0 2.49232)
(-11.4162 0 2.36053)
(-10.2083 0 2.18285)
(-10.0161 9.52914e-15 2.04803)
(-9.31036 1.78617e-14 1.84117)
(-8.94623 -8.67887e-15 1.75346)
(-8.20047 0 1.53078)
(-7.96523 1.49821e-14 1.50369)
(-7.11771 0 1.3642)
(-7.32429 1.31506e-14 1.42893)
(-6.65072 -1.25303e-14 1.3084)
(-7.03553 1.17285e-14 1.39263)
(-6.29168 1.13458e-14 1.22387)
(-7.00065 -1.04029e-14 1.34939)
(-6.11723 8.87258e-20 1.17198)
(-6.88121 -9.06942e-15 1.31914)
(-6.64925 0 1.29623)
(10.3001 1.26836e-17 -78.6342)
(-11.1583 0 -28.2459)
(-3.93832 3.61497e-17 -12.4936)
(1.0687 0 -7.47906)
(3.74922 4.08173e-17 -5.06461)
(5.43219 8.20618e-17 -3.81356)
(6.42665 3.98208e-17 -3.10628)
(7.04711 0 -2.5257)
(7.33633 3.83596e-19 -2.1001)
(7.41081 6.83211e-17 -1.83588)
(7.45883 -6.40125e-17 -1.60189)
(7.51431 -5.97047e-17 -1.35907)
(7.44504 5.5358e-17 -1.20988)
(7.19259 -5.09519e-17 -1.14413)
(6.87023 -9.29947e-17 -1.03439)
(6.56985 0 -0.87026)
(6.23615 -2.05447e-19 -0.756136)
(5.78926 -6.90784e-17 -0.717206)
(5.27392 -6.19264e-17 -0.662457)
(4.82315 0 -0.526636)
(4.50033 0 -0.347239)
(4.22713 -4.3415e-17 -0.200988)
(3.84719 0 -0.120706)
(3.208 -3.2904e-17 -0.0783942)
(2.2635 5.78837e-17 -0.0502065)
(1.12304 0 -0.0299915)
(0.00415788 -4.76154e-17 -0.00508708)
(-0.895834 0 0.0485729)
(-1.49615 4.40338e-17 0.125361)
(-1.86794 8.66649e-17 0.206609)
(-2.1629 8.47646e-17 0.277217)
(-2.4145 4.11868e-17 0.310718)
(-2.64016 -3.98877e-17 0.357894)
(-2.70004 -1.53473e-16 0.41598)
(-2.4957 -1.44717e-16 0.526799)
(-2.0578 0 0.696997)
(-1.47206 0 0.89131)
(-1.10335 -1.83919e-19 1.08807)
(-1.1179 0 1.18342)
(-1.642 1.54271e-17 1.18841)
(-2.55446 0 1.10919)
(-3.49272 8.94527e-18 0.984137)
(-4.29826 0 0.887033)
(-4.79852 1.45133e-17 0.825316)
(-5.17167 0 0.795803)
(-5.45594 -2.88095e-17 0.735304)
(-5.83958 0 0.675627)
(-6.16134 0 0.554195)
(-6.12041 6.88974e-17 0.468075)
(-5.70129 0 0.467306)
(-4.75864 0 0.5349)
(-3.65578 0 0.662958)
(-2.65868 1.42296e-16 0.764689)
(-1.70581 2.22119e-16 0.799722)
(-0.861293 0 0.845554)
(0.208456 0 0.891668)
(1.62198 4.75314e-17 1.01354)
(2.90356 1.30184e-16 1.18562)
(3.99733 0 1.28111)
(4.32534 0 1.26171)
(3.69244 0 1.06832)
(2.52284 0 0.732704)
(0.898985 9.44651e-16 0.437618)
(-0.751097 -9.20513e-16 0.248129)
(-2.20981 1.75493e-15 0.255481)
(-3.72475 0 0.509539)
(-5.14145 0 0.87071)
(-6.34359 0 1.31177)
(-7.37966 7.73429e-19 1.71604)
(-7.65962 1.36382e-15 1.98763)
(-7.09837 1.34216e-15 1.99334)
(-5.44402 -2.69763e-15 1.51671)
(-2.90505 9.7332e-19 0.933735)
(-0.66036 1.33608e-15 0.519794)
(-0.0798918 1.33757e-15 0.413575)
(-1.27818 0 0.755683)
(-3.59303 0 1.3102)
(-4.6798 0 1.83422)
(-4.59893 -2.71867e-15 1.6156)
(-4.18466 0 1.27375)
(-4.65107 0 1.28169)
(-6.70747 -2.61293e-15 1.54722)
(-10.4316 -2.49689e-15 2.03885)
(-13.678 0 2.57431)
(-15.3922 0 2.82292)
(-15.0422 0 2.90955)
(-14.6336 -8.21995e-15 2.9502)
(-14.5878 -1.17308e-18 3.04747)
(-15.8974 -3.99205e-15 3.29356)
(-17.1578 3.85578e-15 3.37415)
(-17.1214 -7.35154e-15 3.26554)
(-14.4796 -3.49003e-15 2.64676)
(-10.5454 -6.56254e-15 1.79423)
(-6.07696 0 1.00066)
(-4.44835 0 0.713386)
(-4.70188 0 0.831828)
(-8.72651 0 1.7146)
(-13.757 -4.76401e-15 2.82535)
(-21.6392 0 4.36212)
(-27.6501 0 5.55784)
(-33.2358 4.36366e-15 6.72805)
(-36.4353 -4.48531e-15 7.24723)
(-37.8738 -1.72869e-14 7.5609)
(-36.8027 9.04114e-15 7.36045)
(-35.5019 0 6.99864)
(-32.3472 0 6.43721)
(-31.1548 0 6.10645)
(-28.5373 -8.50708e-15 5.52658)
(-27.4602 8.25969e-15 5.29097)
(-24.7364 0 4.68504)
(-24.3667 -2.84682e-14 4.63379)
(-22.074 -1.33006e-14 4.2271)
(-22.982 -2.49486e-14 4.42727)
(-20.9756 0 4.05426)
(-22.3233 0 4.31676)
(-19.8571 1.07382e-14 3.82144)
(-22.0319 0 4.22696)
(-19.3591 9.32292e-15 3.70149)
(-21.7123 8.56618e-15 4.16814)
(-20.9707 0 4.04679)
(16.1532 0 -47.5778)
(4.69593 0 -28.2773)
(6.05339 3.99769e-17 -16.0302)
(9.3331 0 -10.1409)
(11.7105 0 -7.03261)
(12.8114 -3.81156e-17 -5.42862)
(13.1546 -3.77108e-17 -4.52602)
(13.2642 0 -3.85487)
(13.0871 6.31932e-19 -3.28618)
(12.6345 -6.47252e-17 -2.85955)
(12.1447 1.21778e-16 -2.58105)
(11.7299 5.65701e-17 -2.35904)
(11.2597 4.24567e-19 -2.14237)
(10.6414 4.82809e-17 -1.94272)
(9.94728 4.41126e-17 -1.7701)
(9.25362 -4.03245e-17 -1.63634)
(8.54242 7.25089e-17 -1.53885)
(7.7752 6.54617e-17 -1.42257)
(6.98108 0 -1.22861)
(6.24206 0 -0.981901)
(5.59884 -4.71357e-17 -0.766497)
(4.99355 -4.15222e-17 -0.628995)
(4.30018 0 -0.548708)
(3.37556 0 -0.471281)
(2.16479 -5.48484e-17 -0.36698)
(0.767838 0 -0.241873)
(-0.601134 9.07283e-17 -0.0994691)
(-1.75147 -4.33743e-17 0.0610093)
(-2.60765 0 0.221514)
(-3.23892 -4.1132e-17 0.35634)
(-3.79133 -4.02217e-17 0.467277)
(-4.28591 0 0.543215)
(-4.73574 3.82016e-17 0.633197)
(-4.99874 7.28145e-17 0.749634)
(-4.98075 -3.81791e-19 0.900271)
(-4.71651 0 1.10674)
(-4.2981 0 1.30928)
(-4.08928 -3.87838e-17 1.50625)
(-4.24915 0 1.61121)
(-4.89138 0 1.63289)
(-5.88816 0 1.6085)
(-6.87723 0 1.54175)
(-7.70245 0 1.50764)
(-8.19874 0 1.48696)
(-8.54408 0 1.48718)
(-8.77266 2.73818e-17 1.44342)
(-9.07018 -3.61881e-17 1.39082)
(-9.26867 0 1.2993)
(-9.07567 -6.51834e-17 1.19801)
(-8.48019 0 1.16336)
(-7.35073 0 1.13985)
(-6.05222 1.54752e-16 1.13498)
(-4.84906 0 1.10592)
(-3.67676 -1.04748e-16 1.01195)
(-2.60369 6.60207e-17 0.938334)
(-1.306 0 0.864851)
(0.321151 -4.49275e-17 0.819307)
(1.79813 0 0.833841)
(3.05999 0 0.790572)
(3.53219 0 0.707508)
(2.99253 -7.626e-16 0.578754)
(1.83219 -8.63207e-16 0.409179)
(0.0518394 1.87369e-19 0.357505)
(-1.98426 1.73834e-15 0.465864)
(-4.10893 -1.77006e-19 0.761889)
(-6.52589 0 1.24772)
(-8.95025 0 1.78762)
(-11.0676 1.35546e-15 2.32135)
(-12.7472 6.06415e-19 2.75823)
(-13.1583 0 2.95818)
(-12.1293 0 2.7794)
(-9.2868 1.2726e-15 2.01792)
(-5.27569 6.21607e-19 1.13454)
(-1.94324 5.26201e-19 0.537069)
(-1.3884 0 0.583008)
(-3.63399 0 1.18039)
(-7.35294 2.53184e-15 1.97732)
(-9.0246 -2.54508e-15 2.54581)
(-8.86636 0 2.25145)
(-8.22935 0 1.89658)
(-9.21999 0 2.04564)
(-12.6024 0 2.86412)
(-18.5635 0 3.82356)
(-23.4644 0 4.64933)
(-25.9887 0 4.98562)
(-25.5531 0 4.89258)
(-25.1359 7.73021e-15 4.87706)
(-25.3406 3.78203e-15 5.02023)
(-27.4439 3.75201e-15 5.44789)
(-28.9509 -3.62319e-15 5.60666)
(-28.414 6.90632e-15 5.32314)
(-23.7779 3.27816e-15 4.26648)
(-17.638 3.08131e-15 2.99964)
(-11.1405 0 1.83784)
(-9.50406 0 1.6527)
(-10.7774 0 2.14733)
(-18.1888 0 3.79931)
(-26.8573 4.46943e-15 5.63801)
(-39.6754 0 8.12245)
(-49.1445 0 9.87931)
(-57.9407 -4.09149e-15 11.5457)
(-62.4143 0 12.2542)
(-64.4502 8.10212e-15 12.5812)
(-62.3233 -8.47256e-15 12.1045)
(-59.9084 0 11.5254)
(-54.7884 0 10.5727)
(-52.7003 0 10.1053)
(-48.1612 -7.96664e-15 9.18935)
(-46.4894 0 8.84096)
(-41.8696 7.18018e-15 7.91526)
(-41.5725 5.86267e-19 7.89098)
(-37.8939 1.24479e-14 7.24205)
(-39.5978 2.33456e-14 7.59137)
(-36.197 0 6.95611)
(-38.5958 -1.03915e-14 7.40985)
(-34.4 -1.00443e-14 6.60002)
(-38.1551 -9.20174e-15 7.31706)
(-33.7242 0 6.45601)
(-37.7091 -8.00966e-15 7.26841)
(-36.2898 0 6.98422)
(18.8012 0 -33.7268)
(11.5835 0 -25.8621)
(11.1887 -3.77913e-17 -17.5912)
(13.524 0 -12.0642)
(16.0261 3.97284e-17 -8.68789)
(17.6152 -7.5913e-17 -6.74757)
(18.4659 0 -5.49088)
(18.7754 7.04669e-17 -4.64135)
(18.4836 -6.55578e-17 -4.11376)
(17.7882 -6.24704e-17 -3.76346)
(17.0463 -5.78053e-17 -3.43902)
(16.3614 5.46739e-17 -3.11802)
(15.5724 -5.00088e-17 -2.85013)
(14.5922 9.28336e-17 -2.65132)
(13.5201 0 -2.50034)
(12.4632 7.67436e-17 -2.36394)
(11.4247 0 -2.19887)
(10.3587 0 -1.96494)
(9.2582 0 -1.66428)
(8.17679 -5.07875e-17 -1.36374)
(7.16612 -5.10893e-19 -1.13621)
(6.20143 -5.51864e-19 -0.987413)
(5.17623 -3.49807e-17 -0.870066)
(3.94231 0 -0.735322)
(2.42987 0 -0.561935)
(0.731039 0 -0.36049)
(-0.939285 -8.70297e-17 -0.135926)
(-2.39236 -6.24359e-19 0.103254)
(-3.55419 0 0.33406)
(-4.48862 0 0.523867)
(-5.33497 0 0.683479)
(-6.10445 0 0.815801)
(-6.80704 -7.26465e-17 0.962206)
(-7.30078 0 1.15466)
(-7.49575 6.52511e-17 1.37197)
(-7.43072 0 1.64446)
(-7.20367 0 1.89255)
(-7.17703 3.67069e-17 2.10972)
(-7.50283 0 2.23152)
(-8.28209 0 2.25057)
(-9.3796 -6.90184e-18 2.24127)
(-10.4332 8.19247e-18 2.18842)
(-11.2862 0 2.16919)
(-11.7793 1.31042e-17 2.15847)
(-12.0923 0 2.14889)
(-12.2524 -5.16603e-17 2.09739)
(-12.4474 -5.61746e-21 2.01282)
(-12.5014 0 1.91601)
(-12.1301 0 1.7829)
(-11.3245 7.25006e-17 1.7206)
(-9.96887 1.53188e-16 1.64487)
(-8.42955 -2.91961e-16 1.56669)
(-6.97692 0 1.46147)
(-5.54589 -9.8319e-17 1.29502)
(-4.21338 -6.23211e-17 1.14779)
(-2.66469 -1.92196e-17 1.0213)
(-0.809611 4.33478e-17 0.902377)
(0.860401 0 0.850861)
(2.26551 0 0.750916)
(2.82241 5.89654e-16 0.623585)
(2.28 1.43928e-15 0.516151)
(1.0021 8.1415e-16 0.421728)
(-1.07138 -2.46259e-20 0.513905)
(-3.61046 -8.19501e-16 0.832157)
(-6.46624 -7.80743e-16 1.3633)
(-9.76377 0 2.08708)
(-13.0967 0 2.81867)
(-15.9657 -1.27736e-15 3.44183)
(-18.0965 -2.45142e-15 3.86112)
(-18.4653 0 3.87805)
(-16.8551 -1.19597e-15 3.42051)
(-12.8378 -1.2001e-15 2.40744)
(-7.56771 -1.19264e-15 1.31804)
(-3.45992 -2.37314e-15 0.706869)
(-3.20539 0 0.982805)
(-6.53356 0 1.89027)
(-11.5006 -2.38252e-15 2.84792)
(-13.6272 4.7912e-15 3.19845)
(-13.4161 2.41469e-15 2.8866)
(-12.726 0 2.63405)
(-14.4624 0 3.09224)
(-19.3028 0 4.33322)
(-27.3497 0 5.77019)
(-33.6031 0 6.77007)
(-36.7734 0 7.12413)
(-36.2452 3.74838e-15 6.92384)
(-35.955 4.16247e-19 6.93643)
(-36.4628 -3.55298e-15 7.18161)
(-39.2787 0 7.75661)
(-40.7934 -3.4017e-15 7.86965)
(-39.5771 -3.24126e-15 7.32588)
(-33.0167 0 5.79682)
(-25.1714 2.89058e-15 4.18459)
(-17.3159 5.38235e-15 2.87674)
(-16.4137 0 3.00743)
(-19.249 0 3.95925)
(-30.3921 0 6.42766)
(-42.6513 4.19095e-15 9.02223)
(-60.058 0 12.3803)
(-72.4357 0 14.6386)
(-83.8948 -3.83476e-15 16.7171)
(-89.1219 3.94131e-15 17.4578)
(-91.4364 0 17.7393)
(-87.9859 0 16.9182)
(-84.5094 0 16.1022)
(-77.4184 0 14.7748)
(-74.5677 0 14.1649)
(-68.1044 3.42765e-19 12.9038)
(-65.971 0 12.461)
(-59.5349 -6.71897e-15 11.22)
(-59.4919 1.24653e-14 11.2608)
(-54.4632 0 10.3831)
(-57.0305 -4.24555e-19 10.8961)
(-52.18 0 9.99256)
(-55.6939 6.09935e-19 10.6473)
(-49.7793 0 9.5228)
(-55.1686 8.6033e-15 10.5608)
(-49.0529 0 9.37283)
(-54.6229 -7.48689e-15 10.532)
(-52.4337 0 10.0583)
(20.3017 0 -26.6008)
(15.4193 0 -23.0868)
(14.0788 0 -17.9133)
(15.2673 0 -13.5022)
(17.4907 -3.75005e-17 -10.2477)
(19.5259 -1.33154e-18 -7.93553)
(21.0665 0 -6.34546)
(21.9773 -6.6511e-17 -5.39633)
(22.1726 0 -4.85009)
(21.8744 1.19098e-16 -4.4249)
(21.3824 0 -3.99852)
(20.7447 -5.16161e-17 -3.63768)
(19.8451 0 -3.41129)
(18.6823 -8.76497e-17 -3.27298)
(17.4026 4.06668e-17 -3.13631)
(16.1273 -7.35477e-17 -2.94966)
(14.8594 6.74231e-17 -2.69364)
(13.5374 6.089e-17 -2.37515)
(12.1327 0 -2.03373)
(10.7 4.79575e-17 -1.73053)
(9.32169 4.25821e-17 -1.49873)
(8.00398 7.60084e-17 -1.31199)
(6.64495 3.30313e-17 -1.12605)
(5.08331 0 -0.920759)
(3.23759 0 -0.689698)
(1.19893 0 -0.437063)
(-0.813484 4.14423e-17 -0.15611)
(-2.61099 3.9321e-17 0.146135)
(-4.12038 0 0.444994)
(-5.39822 0 0.700618)
(-6.57572 -3.72087e-17 0.924826)
(-7.65732 0 1.12834)
(-8.64954 -5.26496e-19 1.34268)
(-9.41343 6.69538e-17 1.61448)
(-9.86218 -6.27577e-17 1.90345)
(-10.0379 0 2.24327)
(-10.0438 0 2.54209)
(-10.2375 -3.46447e-17 2.78203)
(-10.7643 0 2.91843)
(-11.7098 0 2.92933)
(-12.9317 6.51301e-18 2.92066)
(-14.0687 -7.73046e-18 2.86794)
(-14.9627 0 2.84817)
(-15.4604 -1.23635e-17 2.83564)
(-15.7426 0 2.80446)
(-15.83 2.43297e-17 2.73387)
(-15.9108 3.22529e-17 2.60478)
(-15.8041 0 2.48658)
(-15.2332 5.82048e-17 2.31203)
(-14.1914 -6.83721e-17 2.21569)
(-12.5806 -2.88597e-16 2.09091)
(-10.7684 1.37507e-16 1.94796)
(-9.0343 -1.18463e-16 1.77469)
(-7.31545 3.61474e-19 1.54484)
(-5.70005 0 1.33294)
(-3.8865 1.81153e-17 1.16814)
(-1.80247 -4.08528e-17 1.001)
(0.045275 1.12464e-16 0.911296)
(1.55668 -1.93654e-16 0.784562)
(2.13754 -5.55538e-16 0.634876)
(1.50848 -6.78198e-16 0.561503)
(0.012431 7.66908e-16 0.549931)
(-2.45378 -7.92533e-16 0.795276)
(-5.5699 0 1.332)
(-9.18217 0 2.1043)
(-13.3164 -6.78098e-16 3.0494)
(-17.4494 0 3.94405)
(-20.9096 0 4.61785)
(-23.3126 1.15378e-15 4.97406)
(-23.4835 0 4.78176)
(-21.2209 1.12523e-15 4.02491)
(-16.1193 2.25862e-15 2.7151)
(-9.84801 0 1.45992)
(-5.27167 1.11616e-15 0.935264)
(-5.52473 0 1.5514)
(-9.90916 0 2.79807)
(-15.9448 2.24185e-15 3.87471)
(-18.3767 -2.25256e-15 4.00947)
(-18.1885 5.72519e-19 3.65037)
(-17.6219 0 3.51264)
(-20.3612 0 4.1391)
(-26.6628 0 5.9231)
(-36.5729 2.07365e-15 7.88586)
(-43.8979 -1.97156e-15 8.95342)
(-47.588 0 9.25716)
(-46.9811 -7.03726e-15 8.96392)
(-46.9485 -3.40822e-15 9.05452)
(-47.7809 6.66878e-15 9.42306)
(-51.2147 3.30644e-15 10.1104)
(-52.529 6.38225e-15 10.0898)
(-50.5654 0 9.22424)
(-42.266 0 7.23776)
(-33.28 -2.71039e-15 5.40777)
(-24.7262 -5.04602e-15 4.13278)
(-25.2193 4.73012e-15 4.75599)
(-30.0108 0 6.32214)
(-45.0688 0 9.69302)
(-60.7482 -3.92666e-15 13.0243)
(-82.33 -3.83514e-15 17.1536)
(-97.0762 0 19.7468)
(-110.723 3.59134e-15 22.103)
(-116.247 -3.6906e-15 22.7371)
(-118.635 0 22.8967)
(-113.661 0 21.6685)
(-109.232 0 20.6263)
(-100.174 0 18.9338)
(-96.7055 0 18.2104)
(-88.3101 6.97671e-15 16.61)
(-85.8498 0 16.1023)
(-77.6511 0 14.5704)
(-78.0061 0 14.7143)
(-71.6443 -1.08894e-14 13.6233)
(-75.1147 -1.02095e-14 14.3076)
(-68.7773 0 13.1331)
(-73.4267 9.08454e-15 13.9903)
(-65.8275 0 12.5657)
(-72.8166 8.04132e-15 13.9208)
(-65.1399 0 12.4299)
(-72.1564 6.99676e-15 13.9219)
(-69.1776 0 13.2315)
(21.2135 4.90702e-17 -22.2841)
(17.9049 4.60334e-17 -20.6476)
(16.2775 -4.32416e-17 -17.4683)
(16.4742 -4.10367e-17 -14.196)
(17.9755 0 -11.3503)
(19.7641 3.55147e-17 -9.0757)
(21.404 0 -7.42183)
(22.7208 -6.59903e-17 -6.33994)
(23.5914 -6.19765e-17 -5.58593)
(24.0399 -1.14791e-16 -4.94468)
(24.1498 5.4336e-17 -4.40291)
(23.9067 -5.05077e-17 -4.04626)
(23.262 0 -3.87027)
(22.2787 0 -3.7578)
(21.1131 -3.83399e-17 -3.59547)
(19.875 -7.98388e-19 -3.34348)
(18.5585 1.44675e-18 -3.02132)
(17.0977 1.2623e-18 -2.67688)
(15.4726 0 -2.35625)
(13.7653 0 -2.08126)
(12.095 0 -1.83835)
(10.4852 -7.34445e-17 -1.59091)
(8.82474 -3.29108e-17 -1.32337)
(6.94053 0 -1.0537)
(4.75182 0 -0.785977)
(2.35883 -4.51665e-17 -0.50673)
(-0.0130266 0 -0.18884)
(-2.17637 0 0.16775)
(-4.05996 0 0.53757)
(-5.71228 0 0.872866)
(-7.25487 -8.06069e-19 1.17919)
(-8.6875 0 1.46863)
(-10.0119 -6.35294e-19 1.76083)
(-11.0935 -6.3114e-17 2.11181)
(-11.8471 -7.61111e-19 2.47086)
(-12.3167 0 2.87164)
(-12.6104 0 3.21655)
(-13.0768 0 3.47538)
(-13.8544 0 3.62062)
(-15.0103 0 3.62016)
(-16.3948 0 3.60427)
(-17.6485 0 3.5457)
(-18.6109 7.04309e-18 3.51832)
(-19.1363 1.16053e-17 3.49755)
(-19.4042 0 3.43954)
(-19.43 2.26787e-17 3.34277)
(-19.3992 0 3.16356)
(-19.1282 0 3.01395)
(-18.3476 -1.09594e-16 2.79251)
(-17.0534 0 2.6556)
(-15.1677 1.35748e-16 2.48019)
(-13.0584 0 2.27275)
(-11.0164 2.22587e-16 2.03222)
(-8.98403 4.52084e-19 1.74116)
(-7.0631 0 1.46856)
(-4.97012 0 1.27266)
(-2.65508 0 1.07163)
(-0.643043 -2.12299e-16 0.960962)
(0.940324 3.64977e-16 0.828738)
(1.49036 5.24039e-16 0.678525)
(0.701386 6.38716e-16 0.660319)
(-1.09606 -1.44276e-15 0.753754)
(-4.03103 -7.45021e-16 1.17357)
(-7.77022 0 1.94442)
(-12.1369 0 2.96182)
(-17.0417 1.57678e-20 4.11487)
(-21.8584 0 5.13812)
(-25.7567 0 5.81612)
(-28.2794 1.086e-15 6.05746)
(-28.1427 0 5.61678)
(-25.2188 0 4.5321)
(-19.1721 -2.12409e-15 2.91834)
(-12.1725 1.05613e-15 1.56519)
(-7.40116 0 1.23405)
(-8.30851 0 2.26944)
(-13.6673 0 3.86313)
(-20.5884 -2.10544e-15 5.01142)
(-23.208 0 4.93844)
(-23.1436 -4.26247e-15 4.50926)
(-22.8737 2.12627e-15 4.51156)
(-26.6709 0 5.76171)
(-34.4149 0 7.84256)
(-46.0196 -1.94588e-15 10.1163)
(-54.1418 3.75518e-19 11.1623)
(-58.2568 -1.73129e-15 11.3677)
(-57.5853 3.30043e-15 10.9797)
(-57.9205 -3.19737e-15 11.182)
(-59.0652 -3.12697e-15 11.6833)
(-63.029 -3.10009e-15 12.4519)
(-63.9939 -1.49091e-19 12.234)
(-61.3351 0 11.0186)
(-51.5777 2.7019e-15 8.61604)
(-42.0467 0 6.69924)
(-33.3915 0 5.62743)
(-35.8233 -4.43123e-15 6.90114)
(-42.8268 0 9.17445)
(-61.8362 0 13.4845)
(-80.6615 0 17.5132)
(-105.974 3.59088e-15 22.3069)
(-122.568 0 25.1011)
(-138.017 3.3628e-15 27.625)
(-143.471 0 28.0377)
(-145.843 0 28.0285)
(-139.211 0 26.3474)
(-133.99 0 25.1005)
(-122.972 0 23.0523)
(-119.049 6.97198e-15 22.2443)
(-108.709 6.52402e-15 20.3084)
(-106.049 -6.33006e-15 19.7612)
(-96.1132 0 17.9543)
(-96.9613 0 18.2253)
(-89.2755 2.03604e-14 16.9315)
(-93.653 0 17.7853)
(-85.8221 -9.08066e-15 16.3428)
(-91.5593 0 17.39)
(-82.3458 -8.20275e-15 15.6842)
(-90.7839 -7.51447e-15 17.3299)
(-81.7287 0 15.5664)
(-89.9599 6.53701e-15 17.3597)
(-86.2253 0 16.4409)
(21.7133 -4.62109e-17 -19.5363)
(19.5418 -9.01157e-17 -18.6002)
(18.1224 4.07312e-17 -16.6071)
(17.7699 -2.44878e-18 -14.3007)
(18.5325 -3.86795e-17 -12.0168)
(19.6409 0 -10.0782)
(20.8739 0 -8.56271)
(22.1802 6.21392e-17 -7.37537)
(23.3884 1.18631e-16 -6.38685)
(24.3447 -1.6545e-18 -5.55097)
(24.9819 -5.11599e-17 -4.92042)
(25.2547 4.75552e-17 -4.53441)
(25.1377 -4.50165e-17 -4.32205)
(24.6781 0 -4.14286)
(23.9741 0 -3.89659)
(23.0815 3.36839e-17 -3.57118)
(21.97 -1.24086e-16 -3.2164)
(20.5823 -1.11966e-16 -2.89402)
(18.9316 0 -2.62607)
(17.1397 0 -2.38111)
(15.3492 0 -2.11047)
(13.5806 -1.2427e-18 -1.79218)
(11.7064 6.31436e-17 -1.45374)
(9.55325 -2.82802e-17 -1.1457)
(7.05915 -4.97461e-17 -0.870625)
(4.34356 8.6855e-17 -0.588493)
(1.63761 -4.05627e-17 -0.248776)
(-0.876169 -3.82233e-17 0.156813)
(-3.13089 -3.68232e-17 0.601522)
(-5.16692 0 1.02909)
(-7.09427 3.3786e-17 1.43273)
(-8.90882 -3.36588e-17 1.82001)
(-10.6056 3.16676e-17 2.19707)
(-12.054 6.15511e-17 2.62437)
(-13.1683 1.13644e-16 3.04778)
(-13.9925 0 3.49903)
(-14.6384 0 3.88028)
(-15.442 3.12335e-17 4.15027)
(-16.534 0 4.29688)
(-17.9602 -1.18791e-17 4.28234)
(-19.5625 -6.15714e-18 4.25447)
(-20.9844 0 4.18776)
(-22.0623 -1.34886e-17 4.14983)
(-22.6592 -1.09214e-17 4.11777)
(-22.951 0 4.03148)
(-22.9481 -2.13398e-17 3.90478)
(-22.8297 -2.85368e-17 3.67426)
(-22.4108 0 3.48712)
(-21.4288 1.02972e-16 3.2166)
(-19.8829 -6.02012e-17 3.03392)
(-17.7167 -1.26735e-16 2.80572)
(-15.2983 0 2.53255)
(-12.9305 -6.11245e-19 2.22403)
(-10.5639 1.62102e-16 1.87265)
(-8.31589 0 1.54248)
(-5.92669 0 1.32045)
(-3.37365 3.76494e-17 1.09642)
(-1.20284 1.0008e-16 0.97848)
(0.428565 -3.44075e-16 0.859214)
(0.907295 -4.92609e-16 0.730741)
(-0.0962987 -6.00355e-16 0.791666)
(-2.25454 6.77856e-16 1.01651)
(-5.70619 1.39977e-15 1.63489)
(-10.0845 0 2.65574)
(-15.1776 0 3.92008)
(-20.7715 1.1982e-15 5.26199)
(-26.1556 0 6.37499)
(-30.3566 0 7.00495)
(-32.883 -1.01999e-15 7.07359)
(-32.3798 0 6.33775)
(-28.8437 9.95931e-16 4.90445)
(-22.0318 -1.00631e-18 3.00814)
(-14.5804 -9.91504e-16 1.63853)
(-9.84426 0 1.60438)
(-11.4868 0 3.12831)
(-17.6935 0 5.06238)
(-25.3282 -1.97775e-15 6.22484)
(-28.0563 0 5.91094)
(-28.2211 1.99958e-15 5.41633)
(-28.3319 -3.98867e-15 5.6007)
(-33.4063 0 6.96202)
(-42.4055 0 9.8352)
(-55.435 0 12.4141)
(-64.1091 4.77878e-19 13.3521)
(-68.5803 1.62304e-15 13.4169)
(-67.8387 3.09366e-15 12.9309)
(-68.6202 2.99671e-15 13.2708)
(-70.0366 -2.93153e-15 13.9033)
(-74.4747 0 14.7244)
(-75.022 -2.8026e-15 14.2634)
(-71.837 0 12.6989)
(-60.9662 -2.53077e-15 9.94539)
(-51.4678 0 8.08338)
(-43.2049 0 7.36999)
(-47.9721 0 9.42174)
(-57.2865 3.88298e-15 12.4734)
(-80.1433 3.63006e-15 17.7267)
(-101.772 0 22.3835)
(-130.384 -3.36178e-15 27.7279)
(-148.373 3.21647e-15 30.589)
(-165.358 -3.14649e-15 33.1857)
(-170.481 3.23323e-15 33.2833)
(-172.879 0 33.0799)
(-164.518 0 30.9127)
(-158.708 0 29.4937)
(-145.729 0 27.0981)
(-141.529 -6.5194e-15 26.2398)
(-129.231 -9.5608e-19 23.9733)
(-126.476 1.18348e-14 23.4101)
(-114.791 0 21.3409)
(-116.16 0 21.7531)
(-107.16 -9.51463e-15 20.2679)
(-112.4 0 21.2807)
(-103.115 8.48588e-15 19.5812)
(-109.797 0 20.7892)
(-99.0839 1.53272e-14 18.8304)
(-108.676 0 20.7157)
(-98.4804 0 18.7211)
(-107.601 -6.10658e-15 20.7655)
(-103.183 0 19.6117)
(21.9541 0 -17.6574)
(20.6205 4.39885e-17 -16.9547)
(19.4966 0 -15.7157)
(19.004 3.86709e-17 -14.0986)
(19.293 7.47468e-17 -12.3786)
(19.7732 0 -10.8336)
(20.507 -3.3658e-17 -9.48895)
(21.5385 0 -8.28324)
(22.6544 2.1502e-18 -7.20682)
(23.6491 1.07903e-16 -6.30904)
(24.4574 0 -5.6386)
(25.0654 0 -5.18249)
(25.4487 4.23403e-17 -4.84841)
(25.5947 0 -4.52072)
(25.5054 0 -4.14112)
(25.1525 0 -3.73294)
(24.4647 5.91296e-17 -3.36086)
(23.3926 5.33471e-17 -3.07083)
(21.9847 4.95171e-17 -2.84235)
(20.3857 0 -2.59933)
(18.729 0 -2.282)
(17.0077 3.41466e-17 -1.90012)
(15.078 -3.02418e-17 -1.52153)
(12.7832 2.65984e-17 -1.21203)
(10.0966 4.67874e-17 -0.958892)
(7.16261 -8.55077e-17 -0.691814)
(4.21435 -1.98496e-18 -0.339419)
(1.42441 3.59489e-17 0.112744)
(-1.14787 3.46317e-17 0.635372)
(-3.53566 0 1.16341)
(-5.83547 0 1.67352)
(-8.03864 3.16539e-17 2.16423)
(-10.1307 0 2.62789)
(-11.9836 -5.7882e-17 3.12522)
(-13.5084 -5.38233e-17 3.60387)
(-14.7466 4.81254e-17 4.09237)
(-15.8118 0 4.49723)
(-17.0235 -2.93682e-17 4.76829)
(-18.5033 -2.00577e-17 4.90769)
(-20.273 -2.92086e-19 4.87632)
(-22.1652 1.18463e-17 4.83324)
(-23.8269 0 4.7581)
(-25.0905 6.44933e-18 4.70942)
(-25.8277 0 4.66578)
(-26.2087 0 4.55303)
(-26.2387 0 4.39601)
(-26.0855 1.10417e-21 4.11675)
(-25.5634 0 3.88959)
(-24.4157 -4.83474e-17 3.571)
(-22.6435 1.12921e-16 3.33996)
(-20.214 1.19095e-16 3.05859)
(-17.4932 0 2.71997)
(-14.7965 -9.7557e-17 2.34413)
(-12.0844 -1.51117e-16 1.93455)
(-9.49171 0 1.55107)
(-6.78788 0 1.30795)
(-3.98285 -3.5366e-17 1.07124)
(-1.64631 -9.53907e-17 0.958699)
(0.0265319 1.6182e-16 0.86963)
(0.416187 4.63626e-16 0.784602)
(-0.82951 0 0.947668)
(-3.37626 0 1.32838)
(-7.35898 -6.99846e-19 2.16531)
(-12.3605 6.38536e-16 3.44573)
(-18.1276 0 4.95131)
(-24.3187 -5.62361e-16 6.45651)
(-30.1612 0 7.617)
(-34.5536 0 8.14722)
(-37.0079 0 7.9914)
(-36.1296 0 6.9242)
(-32.0843 1.38209e-18 5.13738)
(-24.7191 -1.19792e-18 2.99757)
(-17.086 9.3232e-16 1.69569)
(-12.5666 0 2.05002)
(-14.9665 9.27145e-16 4.11188)
(-21.8638 0 6.36495)
(-30.0591 1.85453e-15 7.48314)
(-32.8404 -1.86387e-15 6.89473)
(-33.3321 1.87475e-15 6.35195)
(-33.9439 1.86931e-15 6.76448)
(-40.1486 0 8.789)
(-50.244 -1.79112e-15 11.9455)
(-64.5422 0 14.7333)
(-73.5525 1.62434e-15 15.4786)
(-78.3285 1.52041e-15 15.3639)
(-77.4766 -2.89815e-15 14.7705)
(-78.7422 0 15.2651)
(-80.3675 5.49208e-15 16.0217)
(-85.276 0 16.8757)
(-85.4298 -2.62382e-15 16.1461)
(-81.9906 0 14.2573)
(-70.3759 -2.3671e-15 11.229)
(-61.4249 0 9.55344)
(-53.9118 -4.1397e-15 9.32828)
(-61.2412 3.88154e-15 12.2535)
(-72.8129 -3.63368e-15 16.1195)
(-99.2898 -3.39666e-15 22.2912)
(-123.347 0 27.498)
(-154.88 6.29069e-15 33.2871)
(-173.908 -6.01844e-15 36.1011)
(-192.306 0 38.7027)
(-196.959 -3.02385e-15 38.4153)
(-199.561 0 38.0171)
(-189.459 0 35.3413)
(-183.297 6.09974e-15 33.7881)
(-168.343 0 31.051)
(-164.054 0 30.1783)
(-149.782 -5.70093e-15 27.5853)
(-147 -1.10587e-14 27.0219)
(-133.518 -5.13119e-15 24.6957)
(-135.348 0 25.2471)
(-125.052 0 23.5838)
(-131.05 0 24.7333)
(-120.409 0 22.7979)
(-127.777 -7.4081e-15 24.1161)
(-115.73 -7.15853e-15 21.9398)
(-126.02 0 23.9857)
(-114.965 0 21.8075)
(-124.561 0 24.0365)
(-119.553 0 22.6482)
(22.04 -4.97155e-17 -16.2777)
(21.2481 0 -15.7865)
(20.389 -4.36341e-17 -14.9666)
(19.9984 0 -13.774)
(20.0547 -3.60504e-17 -12.507)
(20.1806 0 -11.2825)
(20.5749 3.16342e-17 -10.0962)
(21.2799 -6.18624e-17 -8.96805)
(22.0776 -1.12938e-16 -7.95894)
(22.8139 2.03974e-18 -7.11588)
(23.4991 0 -6.44402)
(24.1728 0 -5.90718)
(24.8187 0 -5.42996)
(25.3795 0 -4.94017)
(25.7788 0 -4.42574)
(25.9181 0 -3.94095)
(25.6965 -5.9432e-17 -3.55059)
(25.0774 5.37399e-17 -3.26743)
(24.13 -4.65264e-17 -3.02938)
(22.9839 0 -2.74191)
(21.7196 0 -2.36209)
(20.2794 -3.50243e-17 -1.93634)
(18.5062 -3.1094e-17 -1.55502)
(16.2722 -2.74691e-17 -1.2763)
(13.5922 0 -1.06236)
(10.6316 4.11702e-17 -0.815688)
(7.61671 7.77755e-17 -0.450806)
(4.70362 -3.76255e-17 0.0489764)
(1.93967 0 0.650235)
(-0.70398 0 1.27939)
(-3.309 0 1.89508)
(-5.86036 -3.17331e-17 2.48485)
(-8.33089 0 3.02906)
(-10.593 0 3.58549)
(-12.5532 -5.22604e-17 4.10687)
(-14.2473 -4.52094e-17 4.61711)
(-15.7878 0 5.03058)
(-17.4727 -2.81434e-17 5.29097)
(-19.4133 3.79615e-17 5.41371)
(-21.6056 1.07653e-17 5.36259)
(-23.8714 -5.68966e-18 5.30195)
(-25.8617 0 5.21936)
(-27.4034 0 5.16188)
(-28.3766 0 5.10894)
(-28.9427 -1.23914e-17 4.97469)
(-29.1005 0 4.79044)
(-29.0012 2.51864e-17 4.46869)
(-28.4573 3.52325e-17 4.20287)
(-27.2159 0 3.84073)
(-25.2784 -5.2904e-17 3.56229)
(-22.6354 0 3.23034)
(-19.6483 0 2.82947)
(-16.6433 -9.00616e-17 2.38967)
(-13.5923 7.81934e-19 1.92629)
(-10.6475 4.31513e-17 1.49562)
(-7.61291 0 1.23722)
(-4.53586 0 0.997992)
(-2.01195 8.95234e-17 0.902563)
(-0.281545 0 0.859262)
(0.0318633 -4.35053e-16 0.837378)
(-1.44694 0 1.12243)
(-4.36904 0 1.6788)
(-8.85651 -1.23037e-15 2.74779)
(-14.4286 -1.19728e-15 4.28962)
(-20.7925 -5.70263e-16 6.02358)
(-27.4797 0 7.662)
(-33.6817 0 8.82674)
(-38.1822 -4.68863e-16 9.20881)
(-40.5322 -9.00723e-16 8.78418)
(-39.32 0 7.36015)
(-34.9164 -8.77421e-16 5.22882)
(-27.2331 8.7941e-16 2.89531)
(-19.6745 -8.73988e-16 1.74483)
(-15.5044 8.69941e-16 2.56665)
(-18.6344 -8.68985e-16 5.19974)
(-26.048 0 7.74436)
(-34.6745 0 8.76669)
(-37.4696 1.74648e-15 7.87178)
(-38.3642 -3.51292e-15 7.29712)
(-39.3899 0 7.95755)
(-46.64 0 11.1492)
(-57.7633 1.67769e-15 14.0757)
(-73.0389 0 17.0127)
(-82.2015 0 17.4889)
(-87.2398 -1.42372e-15 17.1585)
(-86.1883 -2.71369e-15 16.4402)
(-87.9254 0 17.0975)
(-89.6786 -2.57102e-15 17.9686)
(-95.1178 0 18.8496)
(-94.9955 2.45579e-15 17.8475)
(-91.654 -2.33467e-15 15.6784)
(-79.6503 2.21509e-15 12.4534)
(-71.6541 2.07912e-15 11.0783)
(-65.0886 1.64372e-18 11.4415)
(-75.0263 -3.63127e-15 15.2983)
(-88.6612 0 19.9836)
(-118.432 3.17963e-15 27.0246)
(-144.549 -3.01506e-15 32.7014)
(-178.719 -2.94182e-15 38.8441)
(-198.557 5.62982e-15 41.5215)
(-218.394 0 44.088)
(-222.57 -2.82843e-15 43.3709)
(-225.691 0 42.8009)
(-213.896 0 39.6035)
(-207.643 -5.70155e-15 37.9572)
(-190.682 0 34.8811)
(-186.494 0 34.0301)
(-170.244 5.3251e-15 31.1149)
(-167.455 1.80088e-18 30.5579)
(-152.093 1.22444e-18 27.9734)
(-154.211 4.44482e-15 28.6436)
(-142.654 0 26.819)
(-149.225 -7.7806e-15 28.0701)
(-137.402 -7.40153e-15 25.9315)
(-145.08 6.91971e-15 27.2882)
(-131.912 6.68269e-15 24.9362)
(-142.288 0 27.0375)
(-130.669 5.79801e-15 24.7272)
(-140.25 0 27.058)
(-134.752 0 25.4411)