/*--------------------------------*- C++ -*----------------------------------*\
| =========                 |                                                 |
| \\      /  F ield         | OpenFOAM: The Open Source CFD Toolbox           |
|  \\    /   O peration     | Version:  2412                                  |
|   \\  /    A nd           | Website:  www.openfoam.com                      |
|    \\/     M anipulation  |                                                 |
\*---------------------------------------------------------------------------*/
FoamFile
{
    version     2.0;
    format      ascii;
    arch        "LSB;label=32;scalar=64";
    class       surfaceScalarField;
    location    "0.215";
    object      phi;
}
// * * * * * * * * * * * * * * * * * * * * * * * * * * * * * * * * * * * * * //

dimensions      [0 3 -1 0 0 0 0];

oriented        oriented;

internalField   nonuniform List<scalar> 
24930
(
0.0179343
0.0127957
-0.0307298
0.0105627
0.00737158
0.00691387
0.00364886
0.00514047
0.0017734
0.00417033
0.000970142
0.00354883
0.000621509
0.00310402
0.000444813
0.00276557
0.000338449
0.00249733
0.000268241
0.00227827
0.000219061
0.00209525
0.000183015
0.00193957
0.000155685
0.00180517
0.000134396
0.00168773
0.000117442
0.00158404
0.000103693
0.00149168
9.23659e-05
0.00140877
8.29072e-05
0.00133386
7.49147e-05
0.00126577
6.80902e-05
0.00120356
6.22083e-05
0.00114647
5.70968e-05
0.00109384
5.26226e-05
0.00104517
4.86803e-05
0.000999982
4.51852e-05
0.000957915
4.20688e-05
0.000918641
3.9276e-05
0.000881881
3.67616e-05
0.000847395
3.44877e-05
0.000814973
3.24229e-05
0.000784434
3.05406e-05
0.000755617
2.88189e-05
0.000728379
2.72403e-05
0.000702593
2.57877e-05
0.000678145
2.44497e-05
0.000654935
2.32124e-05
0.000632867
2.20677e-05
0.000611862
2.1005e-05
0.000591844
2.00176e-05
0.000572746
1.90977e-05
0.000554506
1.82411e-05
0.000537065
1.74409e-05
0.000520371
1.66948e-05
0.000504377
1.59948e-05
0.000489035
1.53423e-05
0.000474306
1.47296e-05
0.000460144
1.41619e-05
0.000446515
1.36302e-05
0.000433373
1.31428e-05
0.000420686
1.26876e-05
0.000408413
1.22738e-05
0.000396523
1.189e-05
0.000384977
1.15455e-05
0.000373746
1.12299e-05
0.000362789
1.09576e-05
0.000352076
1.07122e-05
0.000341561
1.05144e-05
0.000331212
1.03483e-05
0.000320977
1.02335e-05
0.000310812
1.01622e-05
0.000300663
1.01484e-05
0.000290495
1.01671e-05
0.000280305
1.01894e-05
0.000270174
1.01318e-05
0.000260328
9.84642e-06
0.0002511
9.22878e-06
0.000242958
8.14192e-06
0.000236277
6.6802e-06
0.000231325
4.95288e-06
0.000228045
3.27933e-06
0.000226042
2.00305e-06
0.000224274
1.76824e-06
0.000221342
2.93061e-06
0.000215671
5.67221e-06
0.000207227
8.44308e-06
0.00019764
9.5874e-06
0.000189815
7.82447e-06
0.000185292
4.52199e-06
0.000183188
2.10404e-06
0.000180573
2.615e-06
0.000176776
3.79684e-06
0.000172997
3.78001e-06
0.000172483
5.14771e-07
0.000178379
-5.8954e-06
0.000192152
-1.37718e-05
0.000210492
-1.83393e-05
0.000231324
-2.08322e-05
0.000251942
-2.06177e-05
0.000274509
-2.25676e-05
0.000299373
-2.48644e-05
0.000328967
-2.95942e-05
0.000358739
-2.97716e-05
0.000386375
-2.7634e-05
0.000404082
-1.77078e-05
0.000413654
-9.57101e-06
0.00041371
-5.5172e-08
0.000415479
-1.76759e-06
0.000418346
-2.8697e-06
0.000440042
-2.16966e-05
0.000473221
-3.3178e-05
0.000536387
-6.31679e-05
0.000610659
-7.42717e-05
0.000711019
-0.000100361
0.000816843
-0.000105827
0.000935839
-0.000118994
0.00105326
-0.000117426
0.0011718
-0.000118539
0.00129019
-0.000118391
0.00140686
-0.000116669
0.00152658
-0.000119719
0.00164026
-0.000113675
0.00175996
-0.000119697
0.00187485
-0.000114892
0.00200508
-0.000130226
0.002129
-0.000123925
0.00227972
-0.000150721
0.00241146
-0.00013174
0.0025987
-0.000187236
0.00275315
-0.000154446
0.00306038
-0.000307235
-0.00040625
0.033634
0.0163984
-0.0372366
0.027669
0.0133366
0.022101
0.00921686
0.0178209
0.00605346
0.0147739
0.00401715
0.0126144
0.00278101
0.0110289
0.00203028
0.00981363
0.00155377
0.0088482
0.00123367
0.00805966
0.0010076
0.00740124
0.000841444
0.00684162
0.000715307
0.00635903
0.000616989
0.00593779
0.000538679
0.00556632
0.000475166
0.00523584
0.000422849
0.00493958
0.000379171
0.00467222
0.000342275
0.00442953
0.000310784
0.00420808
0.000283658
0.00400508
0.0002601
0.00381822
0.000239489
0.00364557
0.000221337
0.0034855
0.000205251
0.00333666
0.000190917
0.00319786
0.000178079
0.0030681
0.000166527
0.0029465
0.000156086
0.00283232
0.00014661
0.00272488
0.000137979
0.00262362
0.000130089
0.002528
0.000122857
0.00243759
0.000116209
0.00235195
0.000110087
0.00227073
0.000104432
0.0021936
9.92019e-05
0.00212025
9.43515e-05
0.00205042
8.98478e-05
0.00198386
8.56565e-05
0.00192035
8.17563e-05
0.00185968
7.81169e-05
0.00180165
7.47259e-05
0.00174609
7.15543e-05
0.00169283
6.86001e-05
0.00164172
6.58387e-05
0.00159261
6.32787e-05
0.00154534
6.08951e-05
0.00149979
5.87025e-05
0.00145581
5.66688e-05
0.00141327
5.48132e-05
0.00137205
5.31021e-05
0.00133204
5.15599e-05
0.00129311
5.01533e-05
0.00125516
4.89145e-05
0.00121806
4.78067e-05
0.0011817
4.68703e-05
0.00114597
4.6077e-05
0.00111073
4.5467e-05
0.00107586
4.50287e-05
0.00104124
4.47685e-05
0.00100678
4.46237e-05
0.000972582
4.43908e-05
0.000938923
4.37931e-05
0.000906588
4.2182e-05
0.000876563
3.92531e-05
0.000850251
3.44554e-05
0.000828575
2.83539e-05
0.000812245
2.12841e-05
0.000800717
1.48067e-05
0.000792693
1.00261e-05
0.000784664
9.7976e-06
0.000772655
1.4938e-05
0.000752279
2.60484e-05
0.000724574
3.61476e-05
0.000694633
3.9527e-05
0.000671351
3.11066e-05
0.000657832
1.80388e-05
0.00065123
8.70604e-06
0.000642799
1.10462e-05
0.000632092
1.45056e-05
0.000622883
1.29891e-05
0.000626074
-2.6728e-06
0.000649605
-2.94262e-05
0.000696741
-6.09062e-05
0.000757216
-7.88135e-05
0.000824967
-8.85846e-05
0.000893397
-8.9047e-05
0.00096844
-9.76115e-05
0.00105171
-0.000108136
0.00114733
-0.000125207
0.00124268
-0.000125126
0.00132808
-0.000113035
0.00138558
-7.52034e-05
0.00141886
-4.2844e-05
0.00143152
-1.27181e-05
0.00145109
-2.1345e-05
0.00148629
-3.80638e-05
0.00157694
-0.000112351
0.00171518
-0.000171423
0.0019351
-0.000283084
0.0022001
-0.000339278
0.00253154
-0.000431803
0.00288802
-0.000462311
0.00327366
-0.00050463
0.00366047
-0.000504231
0.00404717
-0.000505243
0.00443665
-0.000507868
0.00482125
-0.000501271
0.0052146
-0.000513069
0.00559452
-0.000493594
0.00599202
-0.000517187
0.00638298
-0.000505852
0.00681774
-0.000564992
0.00724112
-0.000547296
0.00774272
-0.00065232
0.00819352
-0.000582541
0.00881716
-0.000810877
0.00933366
-0.000670946
0.0103368
-0.00131039
-0.00164014
0.0414064
0.0161175
-0.0411256
0.0390838
0.0156592
0.035125
0.0131757
0.0308177
0.0103608
0.0268899
0.00794497
0.023594
0.00607688
0.0209165
0.00470777
0.0187469
0.00372342
0.0169695
0.00301102
0.0154913
0.00248578
0.0142431
0.00208967
0.0131744
0.00178404
0.0122481
0.00154324
0.0114368
0.00134998
0.0107197
0.00119235
0.0100806
0.00106196
0.00950699
0.000952748
0.008989
0.00086027
0.0085186
0.000781188
0.00808929
0.000712969
0.00769573
0.000653656
0.00733351
0.000601716
0.00699891
0.000555938
0.00668882
0.00051535
0.00640057
0.000479168
0.0061319
0.000446754
0.00588085
0.000417579
0.00564573
0.000391207
0.00542507
0.000367273
0.00521758
0.000345471
0.00502213
0.000325545
0.00483771
0.000307283
0.00466342
0.000290501
0.00449847
0.000275044
0.00434213
0.000260775
0.00419375
0.000247577
0.00405276
0.000235343
0.00391862
0.000223986
0.00379085
0.000213424
0.00366901
0.000203599
0.00355269
0.00019444
0.00344151
0.000185911
0.00333512
0.000177947
0.00323318
0.000170535
0.0031354
0.000163623
0.00304146
0.000157219
0.00295109
0.000151272
0.00286399
0.0001458
0.00277992
0.00014074
0.00269861
0.000136118
0.00261985
0.000131868
0.00254338
0.000128025
0.00246901
0.000124527
0.00239651
0.000121413
0.00232569
0.000118624
0.00225635
0.000116207
0.0021883
0.000114127
0.00212134
0.00011242
0.00205528
0.000111089
0.00198997
0.000110071
0.00192533
0.000109262
0.00186163
0.00010809
0.00179943
0.000105996
0.00174017
0.000101447
0.00168548
9.39382e-05
0.00163771
8.22279e-05
0.00159813
6.79287e-05
0.00156778
5.16418e-05
0.00154526
3.73235e-05
0.00152819
2.70946e-05
0.00151024
2.7747e-05
0.00148503
4.01488e-05
0.00144569
6.53916e-05
0.00139534
8.64889e-05
0.00134289
9.1978e-05
0.0013034
7.05937e-05
0.00128036
4.10852e-05
0.00126868
2.03803e-05
0.00125383
2.58985e-05
0.00123698
3.13619e-05
0.00122494
2.50303e-05
0.00123723
-1.49671e-05
0.00128548
-7.76704e-05
0.00137385
-0.000149275
0.00148433
-0.000189296
0.00160728
-0.000211533
0.00173291
-0.000214682
0.00187112
-0.000235817
0.00202437
-0.000261382
0.00219663
-0.000297467
0.00236679
-0.000295288
0.00251696
-0.000263203
0.00262208
-0.000180325
0.00268871
-0.000109468
0.00272993
-5.39415e-05
0.00278845
-7.98679e-05
0.00288698
-0.000136591
0.00308254
-0.000307919
0.00337081
-0.000459689
0.00379268
-0.000704955
0.00429968
-0.000846287
0.00491044
-0.00104256
0.00556905
-0.00112092
0.00626891
-0.00120449
0.00697515
-0.00121048
0.00767922
-0.00120931
0.00839158
-0.00122023
0.00909618
-0.00120586
0.009817
-0.00123389
0.0105195
-0.00119609
0.0112546
-0.00125231
0.0119856
-0.00123685
0.012793
-0.00137235
0.0135859
-0.00134021
0.0145156
-0.00158207
0.0153607
-0.00142763
0.0165138
-0.00196394
0.0174704
-0.00162754
0.0192706
-0.00311061
-0.00379182
0.0458688
0.01483
-0.0445812
0.0459274
0.0156006
0.0443189
0.0147842
0.0415662
0.0131135
0.0382976
0.0112135
0.0349733
0.00940117
0.0318609
0.00782023
0.0290737
0.00651054
0.0266297
0.00545505
0.0245018
0.0046137
0.0226481
0.00394332
0.0210264
0.00340583
0.0195989
0.00297069
0.0183344
0.00261452
0.017207
0.00231972
0.0161958
0.00207311
0.0152838
0.00186475
0.014457
0.00168708
0.0137039
0.0015343
0.013015
0.00140191
0.0123823
0.00128638
0.0117991
0.0011849
0.0112598
0.00109523
0.0107596
0.00101556
0.0102943
0.000944415
0.00986052
0.00088058
0.00945505
0.000823054
0.00907526
0.000770999
0.00871882
0.000723714
0.00838369
0.000680612
0.00806804
0.000641198
0.00777027
0.000605057
0.00748894
0.000571831
0.00722277
0.00054122
0.00697059
0.000512954
0.00673136
0.000486804
0.00650415
0.000462562
0.00628807
0.000440058
0.00608237
0.000419132
0.0058863
0.00039967
0.0056992
0.000381538
0.00552046
0.000364657
0.00534949
0.000348915
0.00518576
0.000334271
0.00502874
0.000320639
0.00487795
0.000308014
0.00473291
0.000296314
0.00459316
0.000285548
0.00445828
0.000275616
0.00432787
0.000266536
0.00420153
0.000258205
0.0040789
0.000250653
0.00395964
0.000243781
0.00384344
0.000237617
0.00372999
0.000232077
0.00361901
0.000227183
0.00351023
0.000222899
0.00340344
0.000219214
0.00329836
0.000216157
0.00319492
0.000213509
0.00309307
0.000211117
0.00299334
0.000207819
0.00289663
0.000202705
0.00280511
0.000192967
0.00272106
0.000177989
0.0026477
0.000155594
0.00258647
0.000129153
0.00253855
9.95668e-05
0.00250139
7.4485e-05
0.00247132
5.71562e-05
0.00243898
6.00967e-05
0.0023958
8.33247e-05
0.00233287
0.000128317
0.00225631
0.000163047
0.00217905
0.000169238
0.0021223
0.000127347
0.00208891
7.4478e-05
0.00207147
3.78156e-05
0.0020498
4.75713e-05
0.00202803
5.31324e-05
0.00201649
3.65719e-05
0.00204388
-4.23507e-05
0.00212434
-0.000158137
0.00226225
-0.000287175
0.00243108
-0.000358131
0.00261834
-0.000398791
0.00281132
-0.000407666
0.00302429
-0.000448788
0.00325952
-0.000496609
0.00351986
-0.0005578
0.00377473
-0.000550162
0.00399887
-0.000487341
0.00416191
-0.000343359
0.00427608
-0.000223642
0.00436587
-0.000143731
0.00449089
-0.000204891
0.00468818
-0.000333881
0.00503148
-0.00065122
0.00551828
-0.000946488
0.00619381
-0.00138049
0.00699702
-0.0016495
0.00794158
-0.00198712
0.00895734
-0.00213668
0.0100255
-0.0022727
0.0111065
-0.00229147
0.0121839
-0.00228666
0.0132777
-0.00231402
0.0143612
-0.00228933
0.0154717
-0.00234438
0.0165603
-0.00228471
0.0177026
-0.00239467
0.0188449
-0.00237907
0.0201038
-0.00263133
0.0213437
-0.00258006
0.0227914
-0.00302972
0.0241136
-0.00274983
0.0259003
-0.00375069
0.0273864
-0.00311361
0.0300762
-0.00580039
-0.00697109
0.0493287
0.0136419
-0.0481406
0.0502778
0.0146515
0.0502741
0.0147878
0.0492258
0.0141618
0.0473533
0.013086
0.0449518
0.0118027
0.0422948
0.0104772
0.0395897
0.00921562
0.0369716
0.00807317
0.0345146
0.00707069
0.0322505
0.00620749
0.0301845
0.0054718
0.0283078
0.00484736
0.0266051
0.00431728
0.0250588
0.00386599
0.0236519
0.00348005
0.0223684
0.00314822
0.0211942
0.00286127
0.0201168
0.00261169
0.0191254
0.00239338
0.0182104
0.00220138
0.0173636
0.00203163
0.016578
0.00188082
0.0158474
0.0017462
0.0151663
0.0016255
0.0145301
0.00151684
0.0139345
0.00141863
0.013376
0.00132954
0.0128512
0.00124843
0.0123575
0.00117437
0.0118922
0.00110653
0.011453
0.00104423
0.0110379
0.00098689
0.0106452
0.000934003
0.010273
0.000885122
0.00991993
0.000839862
0.00958462
0.000797877
0.00926579
0.000758882
0.00896231
0.00072261
0.00867312
0.000688864
0.00839723
0.000657428
0.00813373
0.000628162
0.00788176
0.000600885
0.00764051
0.000575521
0.00740922
0.000551932
0.00718714
0.000530097
0.00697357
0.000509886
0.00676783
0.000491293
0.00656928
0.000474164
0.00637731
0.000458502
0.00619137
0.000444149
0.0060109
0.000431117
0.00583543
0.000419252
0.0056645
0.000408549
0.00549769
0.000398881
0.00533467
0.000390207
0.00517508
0.000382485
0.00501869
0.000375595
0.00486525
0.000369595
0.00471476
0.000363995
0.0045673
0.000358587
0.00442375
0.000351365
0.00428542
0.000341042
0.00415525
0.000323138
0.00403609
0.000297142
0.00393199
0.000259703
0.00384431
0.000216823
0.0037742
0.00016968
0.00371763
0.00013106
0.00366953
0.000105248
0.00361733
0.0001123
0.00355071
0.000149946
0.00345914
0.000219885
0.00335256
0.000269623
0.00324799
0.000273815
0.00317261
0.000202727
0.00312766
0.000119424
0.00310358
6.1899e-05
0.0030748
7.63468e-05
0.00304982
7.81131e-05
0.00304274
4.36599e-05
0.00309183
-9.14458e-05
0.00321237
-0.000278675
0.00340838
-0.000483182
0.0036442
-0.000593953
0.00390535
-0.000659937
0.00417637
-0.000678687
0.00447624
-0.000748657
0.00480585
-0.000826219
0.00516618
-0.000918132
0.00551664
-0.000900619
0.00582587
-0.00079657
0.00606022
-0.000577713
0.00624036
-0.000403771
0.00640374
-0.000307113
0.00662833
-0.000429489
0.00696536
-0.000670906
0.00750456
-0.00119043
0.00824307
-0.001685
0.00922859
-0.002366
0.0103863
-0.00280727
0.0117239
-0.00332462
0.0131566
-0.00356942
0.0146528
-0.00376888
0.0161699
-0.00380861
0.0176828
-0.00379954
0.0192236
-0.00385486
0.0207519
-0.0038176
0.0223223
-0.00391481
0.0238683
-0.0038307
0.0254963
-0.0040227
0.027129
-0.00401177
0.0289282
-0.00443046
0.0307007
-0.00435261
0.0327662
-0.00509519
0.0346573
-0.00464095
0.0371901
-0.00628342
0.0393078
-0.00523137
0.042972
-0.00946455
-0.0112788
0.0527764
0.0127483
-0.0518828
0.0537963
0.0136316
0.0544665
0.0141177
0.0545167
0.0141116
0.0538953
0.0137075
0.0526728
0.0130251
0.0509803
0.0121697
0.0489658
0.0112301
0.0467652
0.0102738
0.0444898
0.00934609
0.0422223
0.00847499
0.0400188
0.00767525
0.0379138
0.00695233
0.0359256
0.00630551
0.0340612
0.00573041
0.0323205
0.00522074
0.0306992
0.00476953
0.0291906
0.00436985
0.0277871
0.00401525
0.0264805
0.00369991
0.0252632
0.00341869
0.0241278
0.00316713
0.0230672
0.0029414
0.0220752
0.00273818
0.0211461
0.00255465
0.0202745
0.00238836
0.0194559
0.00223725
0.018686
0.0020995
0.0179608
0.00197359
0.017277
0.00185817
0.0166314
0.00175213
0.0160212
0.00165447
0.0154437
0.00156435
0.0148967
0.00148105
0.0143779
0.0014039
0.0138854
0.00133235
0.0134174
0.00126587
0.0129723
0.00120404
0.0125484
0.00114647
0.0121444
0.00109286
0.0117589
0.00104289
0.0113908
0.000996342
0.0110387
0.000952958
0.0107016
0.000912611
0.0103784
0.000875103
0.0100682
0.000840385
0.00976977
0.000808272
0.00948233
0.000778731
0.00920496
0.000751543
0.00893678
0.000726679
0.00867702
0.000703911
0.00842492
0.00068321
0.00817982
0.00066435
0.00794112
0.000647255
0.00770826
0.000631733
0.00748084
0.000617626
0.00725845
0.000604867
0.00704091
0.000593139
0.00682797
0.000582528
0.00661984
0.000572119
0.00641678
0.000561656
0.00622014
0.000548004
0.00603165
0.000529534
0.00585508
0.000499702
0.00569379
0.000458439
0.0055525
0.000400996
0.00543228
0.000337034
0.00533406
0.000267904
0.005252
0.000213116
0.00517963
0.000177624
0.00510106
0.000190872
0.00500474
0.000246264
0.00487897
0.000345652
0.00473826
0.000410336
0.00460347
0.000408597
0.00450761
0.000298589
0.00444938
0.000177655
0.00441748
9.38007e-05
0.00438134
0.000112484
0.00435521
0.000104245
0.00435687
4.20057e-05
0.00443444
-0.00016901
0.00460282
-0.000447056
0.00486537
-0.00074573
0.00517675
-0.000905333
0.00552144
-0.00100463
0.00588127
-0.00103852
0.0062802
-0.00114758
0.00671663
-0.00126266
0.00718925
-0.00139075
0.00764731
-0.00135868
0.00805495
-0.0012042
0.00837734
-0.000900101
0.00864594
-0.000672379
0.00891251
-0.000573679
0.00927422
-0.000791204
0.00979612
-0.00119281
0.0105829
-0.00197722
0.0116296
-0.00273169
0.0129844
-0.00372078
0.0145585
-0.00438136
0.0163517
-0.00511786
0.018266
-0.00548377
0.020255
-0.00575784
0.022276
-0.00582956
0.0242928
-0.00581634
0.0263535
-0.00591555
0.0283994
-0.00586351
0.0305079
-0.0060233
0.0325896
-0.00591241
0.0347897
-0.00622278
0.036999
-0.00622115
0.0394352
-0.0068666
0.0418334
-0.00675085
0.0446246
-0.00788638
0.0471844
-0.00720077
0.050579
-0.00967793
0.053444
-0.00809642
0.0581577
-0.0141782
-0.0168018
0.0564843
0.0120653
-0.0558014
0.0573319
0.012784
0.0581198
0.0133298
0.0586345
0.0135969
0.0587534
0.0135885
0.0584309
0.0133477
0.0576767
0.0129239
0.0565396
0.0123672
0.0550891
0.0117243
0.0534018
0.0110334
0.051552
0.0103248
0.0496057
0.00962147
0.0476183
0.00893979
0.0456329
0.0082909
0.0436817
0.00768156
0.0417873
0.00711518
0.0399642
0.00659266
0.0382209
0.00611316
0.0365615
0.00567466
0.0349869
0.00527449
0.0334959
0.00490966
0.032086
0.00457708
0.0307536
0.00427375
0.029495
0.00399681
0.028306
0.00374363
0.0271826
0.00351182
0.0261206
0.0032992
0.0251163
0.00310381
0.024166
0.00292393
0.0232661
0.00275802
0.0224136
0.00260472
0.0216052
0.00246285
0.0208382
0.00233137
0.0201099
0.00220934
0.0194179
0.00209593
0.0187598
0.00199042
0.0181335
0.00189212
0.0175371
0.00180048
0.0169686
0.00171496
0.0164263
0.00163517
0.0159085
0.00156069
0.0154136
0.00149122
0.0149402
0.00142641
0.0144867
0.00136609
0.0140518
0.00130999
0.0136341
0.00125805
0.0132324
0.00121
0.0128454
0.00116579
0.0124718
0.00112511
0.0121106
0.00108791
0.0117606
0.00105385
0.011421
0.00102285
0.0110908
0.000994584
0.0107691
0.000968856
0.0104555
0.000945385
0.0101493
0.000923815
0.00985014
0.000904029
0.00955788
0.000885389
0.0092724
0.000868004
0.00899418
0.000850337
0.00872373
0.000832107
0.008463
0.000808738
0.00821416
0.000778377
0.00798185
0.000732012
0.00776977
0.000670518
0.00758328
0.000587491
0.00742286
0.000497453
0.00728905
0.000401712
0.00717394
0.000328222
0.00706966
0.000281907
0.00695707
0.000303468
0.00682398
0.000379349
0.00665789
0.000511744
0.00647846
0.000589762
0.00631001
0.000577048
0.00619111
0.000417483
0.00611718
0.000251588
0.00607591
0.00013507
0.00603204
0.000156354
0.00600686
0.000129425
0.00602154
2.73328e-05
0.00613404
-0.000281504
0.00635745
-0.00067047
0.00669441
-0.00108268
0.00708938
-0.0013003
0.00752675
-0.001442
0.00798555
-0.00149732
0.008495
-0.00165704
0.00905021
-0.00181786
0.00964747
-0.00198801
0.0102262
-0.00193744
0.0107477
-0.00172568
0.0111779
-0.00133029
0.0115609
-0.00105541
0.0119638
-0.000976507
0.0125031
-0.00133051
0.0132573
-0.00194707
0.014345
-0.00306485
0.0157577
-0.00414445
0.0175424
-0.00550548
0.0195967
-0.0064356
0.0219112
-0.0074324
0.024376
-0.0079486
0.0269273
-0.00830915
0.0295256
-0.00842787
0.0321203
-0.00841098
0.0347803
-0.00857557
0.0374229
-0.00850613
0.0401548
-0.00875517
0.0428564
-0.008614
0.0457213
-0.00908767
0.0485985
-0.00909844
0.0517746
-0.0100427
0.0548969
-0.00987315
0.0585263
-0.0115157
0.061861
-0.0105355
0.0662301
-0.0140471
0.0699703
-0.0118366
0.0757959
-0.0200038
-0.0236049
0.0604766
0.0115059
-0.0599172
0.061156
0.0121046
0.0618641
0.0126217
0.0624778
0.0129832
0.0628991
0.0131672
0.0630637
0.0131832
0.0629355
0.013052
0.0625043
0.0127985
0.0617804
0.0124482
0.0607891
0.0120247
0.0595655
0.0115484
0.0581501
0.0110369
0.0565849
0.010505
0.0549106
0.00996519
0.0531647
0.00942741
0.0513802
0.00889972
0.0495846
0.00838825
0.0478003
0.00789748
0.0460446
0.0074304
0.0443303
0.00698875
0.0426667
0.00657328
0.0410598
0.00618396
0.0395134
0.00582018
0.0380293
0.00548092
0.036608
0.00516495
0.0352489
0.00487086
0.0339509
0.0045972
0.0327122
0.0043425
0.0315308
0.00410535
0.0304044
0.00388443
0.0293306
0.00367849
0.0283071
0.00348639
0.0273314
0.00330708
0.0264011
0.0031396
0.025514
0.00298308
0.0246677
0.0028367
0.0238601
0.00269972
0.0230891
0.00257148
0.0223527
0.00245138
0.0216489
0.00233897
0.0209758
0.00223373
0.0203317
0.00213533
0.0197148
0.00204336
0.0191233
0.0019576
0.0185555
0.00187774
0.0180099
0.0018037
0.0174847
0.00173515
0.0169785
0.00167203
0.0164897
0.00161395
0.0160168
0.00156079
0.0155585
0.00151213
0.0151136
0.00146778
0.0146808
0.00142731
0.0142593
0.00139035
0.0138482
0.00135649
0.013447
0.00132507
0.0130551
0.0012959
0.0126726
0.00126784
0.0122996
0.00124103
0.0119369
0.00121306
0.0115853
0.00118366
0.0112476
0.00114648
0.0109263
0.00109966
0.010627
0.0010313
0.0103536
0.000943895
0.0101121
0.00082907
0.00990191
0.000707603
0.00972326
0.000580367
0.00956583
0.000485649
0.00942051
0.000427221
0.009265
0.000458979
0.00908719
0.00055716
0.00887397
0.000724964
0.00865062
0.000813109
0.00844421
0.000783454
0.00829881
0.000562888
0.00820589
0.000344505
0.00815314
0.000187823
0.0081008
0.000208694
0.00807833
0.000151899
0.00810963
-3.96604e-06
0.00826258
-0.000434447
0.00854701
-0.0009549
0.00896505
-0.00150072
0.00945042
-0.00178567
0.00998823
-0.00197982
0.0105546
-0.00206366
0.0111843
-0.00228682
0.011869
-0.00250249
0.0126028
-0.00272183
0.0133161
-0.00265077
0.0139685
-0.00237803
0.0145284
-0.00189022
0.0150538
-0.00158078
0.0156275
-0.0015502
0.0163852
-0.00208827
0.0174188
-0.00298063
0.0188591
-0.0045052
0.0206946
-0.00597993
0.0229689
-0.00777976
0.0255673
-0.00903405
0.0284698
-0.0103349
0.0315572
-0.011036
0.0347441
-0.0114961
0.0379983
-0.0116821
0.0412491
-0.0116618
0.0445935
-0.01192
0.0479169
-0.0118295
0.0513631
-0.0122014
0.0547725
-0.0120234
0.0583985
-0.0127137
0.0620371
-0.012737
0.0660585
-0.0140641
0.0700058
-0.0138204
0.0745846
-0.0160945
0.0788043
-0.0147551
0.0842495
-0.0194923
0.0890003
-0.0165874
0.095986
-0.0269896
-0.0317241
0.0647468
0.0110249
-0.0642657
0.0653077
0.0115438
0.0659097
0.0120197
0.0664878
0.0124052
0.066979
0.012676
0.0673347
0.0128274
0.0675191
0.0128676
0.0675079
0.0128097
0.0672876
0.0126685
0.066854
0.0124583
0.0662109
0.0121915
0.0653691
0.0118787
0.0643448
0.0115293
0.0631587
0.0111514
0.0618338
0.0107523
0.060395
0.0103385
0.0588672
0.00991604
0.0572744
0.0094903
0.0556388
0.00906605
0.0539801
0.00864741
0.0523156
0.00823782
0.0506596
0.00784
0.0490237
0.007456
0.0474174
0.00708725
0.0458477
0.00673467
0.0443199
0.00639869
0.0428377
0.00607941
0.0414035
0.00577662
0.040019
0.00548993
0.0386846
0.00521883
0.0374004
0.00496269
0.0361659
0.00472087
0.0349803
0.0044927
0.0338424
0.00427751
0.0327508
0.00407463
0.0317041
0.00388341
0.0307007
0.00370319
0.0297387
0.00353341
0.0288166
0.00337349
0.0279326
0.00322302
0.0270848
0.00308152
0.0262714
0.00294869
0.0254907
0.00282409
0.0247408
0.00270755
0.0240198
0.00259875
0.0233258
0.00249762
0.0226572
0.00240384
0.0220119
0.00231733
0.0213882
0.00223765
0.0207843
0.00216463
0.0201987
0.00209777
0.0196297
0.00203676
0.019076
0.00198103
0.0185364
0.00192998
0.0180098
0.00188304
0.0174957
0.00183914
0.0169937
0.00179794
0.0165039
0.00175765
0.0160265
0.00171836
0.0155631
0.00167651
0.0151148
0.00163195
0.0146852
0.00157612
0.0142773
0.00150749
0.0138978
0.00141087
0.0135504
0.0012912
0.0132418
0.00113773
0.0129703
0.000979098
0.0127355
0.000815138
0.0125246
0.000696538
0.0123275
0.000624323
0.0121189
0.000667625
0.0118874
0.000788636
0.0116194
0.000992924
0.0113461
0.00108641
0.0110964
0.00103315
0.0109199
0.000739432
0.0108037
0.000460737
0.0107366
0.000254929
0.0106743
0.000270928
0.0106556
0.000170647
0.0107055
-5.39262e-05
0.0109027
-0.00063158
0.0112521
-0.00130427
0.0117558
-0.0020045
0.0123363
-0.00236616
0.0129799
-0.00262335
0.0136594
-0.00274318
0.0144163
-0.0030437
0.0152386
-0.00332477
0.0161195
-0.00360273
0.0169811
-0.00351243
0.0177819
-0.00317878
0.0184941
-0.00260245
0.0191894
-0.00227611
0.0199673
-0.00232804
0.0209812
-0.00310223
0.0223368
-0.00433616
0.0241765
-0.00634492
0.0264867
-0.00829017
0.0293062
-0.0105992
0.0325105
-0.0122384
0.0360665
-0.0138909
0.03985
-0.0148194
0.0437479
-0.0153941
0.04774
-0.0156742
0.0517276
-0.0156494
0.0558452
-0.0160376
0.0599362
-0.0159205
0.0641911
-0.0164563
0.0683972
-0.0162294
0.0728805
-0.0171971
0.0773721
-0.0172286
0.082341
-0.019033
0.0872133
-0.0186927
0.0928447
-0.0217259
0.09806
-0.0199704
0.104663
-0.0260949
0.110558
-0.0224825
0.118735
-0.0351673
-0.0411615
0.0693037
0.0106005
-0.0688794
0.0697831
0.0110644
0.0702985
0.0115042
0.0708143
0.0118894
0.0712909
0.0121994
0.0716944
0.0124239
0.0719988
0.0125633
0.0721843
0.0126242
0.0722365
0.0126163
0.0721452
0.0125497
0.0719031
0.0124336
0.0715063
0.0122755
0.0709542
0.0120813
0.0702493
0.0118563
0.0693973
0.0116043
0.068407
0.0113288
0.0672902
0.0110329
0.0660607
0.0107198
0.0647341
0.0103927
0.0633267
0.0100547
0.0618553
0.00970927
0.0603358
0.00935946
0.0587835
0.00900829
0.0572123
0.00865853
0.0556343
0.00831259
0.0540605
0.00797253
0.0524999
0.00764006
0.05096
0.00731649
0.0494471
0.00700286
0.047966
0.00669989
0.0465206
0.00640809
0.0451137
0.00612777
0.0437473
0.00585908
0.0424228
0.00560204
0.0411409
0.00535658
0.0399017
0.00512253
0.0387053
0.00489962
0.0375511
0.00468763
0.0364383
0.00448624
0.0353661
0.00429527
0.0343332
0.00411444
0.0333383
0.00394362
0.0323798
0.0037825
0.0314563
0.00363107
0.030566
0.00348908
0.029707
0.00335659
0.0288775
0.00323333
0.0280756
0.00311931
0.0272991
0.00301408
0.0265463
0.00291745
0.0258152
0.00282887
0.0251041
0.00274791
0.0244112
0.00267389
0.0237353
0.0026059
0.0230751
0.0025432
0.0224301
0.00248415
0.0217998
0.00242826
0.0211846
0.00237279
0.0205852
0.00231781
0.0200035
0.00225821
0.0194413
0.00219408
0.0189033
0.0021142
0.0183929
0.00201788
0.0179177
0.00188605
0.0174816
0.00172724
0.0170917
0.00152771
0.016745
0.0013258
0.0164407
0.00111944
0.0161632
0.000974024
0.0159018
0.000885684
0.0156284
0.000941028
0.0153333
0.00108378
0.015002
0.00132417
0.0146717
0.00141671
0.0143722
0.00133272
0.0141585
0.000953086
0.0140134
0.000605841
0.0139281
0.000340264
0.0138534
0.00034555
0.0138377
0.000186376
0.0139065
-0.000122748
0.0141486
-0.000873605
0.0145637
-0.00171942
0.0151549
-0.00259565
0.015832
-0.0030433
0.0165827
-0.00337403
0.0173765
-0.00353702
0.0182625
-0.00392964
0.0192265
-0.00428883
0.0202621
-0.00463827
0.0212842
-0.00453459
0.0222495
-0.00414402
0.0231346
-0.00348761
0.0240239
-0.00316542
0.0250341
-0.00333818
0.0263346
-0.00440272
0.0280459
-0.00604746
0.0303219
-0.00862094
0.0331502
-0.0111185
0.0365625
-0.0140115
0.0404288
-0.0161047
0.0446995
-0.0181616
0.0492516
-0.0193715
0.0539358
-0.0200782
0.0587488
-0.0204872
0.0635538
-0.0204543
0.0685339
-0.0210177
0.0734797
-0.0208663
0.0786375
-0.0216141
0.083727
-0.0213189
0.0891582
-0.0226283
0.0945885
-0.0226589
0.100597
-0.0250414
0.106489
-0.0245847
0.113259
-0.0284965
0.119577
-0.0262876
0.12739
-0.0339085
0.134549
-0.0296408
0.143931
-0.0445498
-0.0518824
0.0741663
0.0102203
-0.0737861
0.0745868
0.0106438
0.0750368
0.0110543
0.0754955
0.0114307
0.0759371
0.0117578
0.0763371
0.0120239
0.0766757
0.0122247
0.0769382
0.0123617
0.0771142
0.0124403
0.077196
0.0124678
0.0771777
0.012452
0.0770538
0.0123994
0.0768198
0.0123154
0.0764715
0.0122046
0.0760058
0.01207
0.0754208
0.0119138
0.0747164
0.0117373
0.0738945
0.0115416
0.0729595
0.0113277
0.0719179
0.0110964
0.070778
0.0108491
0.06955
0.0105875
0.0682451
0.0103132
0.0668753
0.0100283
0.0654528
0.00973514
0.0639895
0.00943582
0.062497
0.00913258
0.060986
0.00882753
0.0594662
0.00852259
0.0579466
0.00821954
0.0564347
0.00791994
0.0549373
0.00762517
0.05346
0.00733638
0.0520075
0.00705458
0.0505836
0.00678052
0.0491912
0.00651487
0.0478328
0.00625805
0.04651
0.00601047
0.0452238
0.00577234
0.0439751
0.005544
0.042764
0.00532556
0.0415903
0.00511733
0.0404535
0.00491933
0.0393527
0.00473185
0.0382869
0.00455489
0.0372547
0.00438882
0.0362545
0.00423354
0.0352845
0.00408926
0.034343
0.00395563
0.0334278
0.00383256
0.0325372
0.0037195
0.0316692
0.00361593
0.030822
0.00352113
0.029994
0.0034338
0.0291841
0.0033531
0.0283917
0.00327662
0.0276162
0.00320375
0.0268585
0.00313046
0.0261195
0.00305683
0.0254019
0.00297573
0.0247083
0.00288768
0.0240443
0.00277822
0.0234141
0.00264811
0.0228263
0.00247383
0.0222848
0.00226873
0.0217972
0.00201534
0.0213593
0.00176376
0.0209699
0.00150883
0.0206107
0.00133323
0.0202708
0.00122551
0.0199196
0.00129224
0.0195497
0.0014537
0.0191456
0.00172823
0.0187502
0.00181211
0.0183928
0.00169009
0.0181347
0.00121128
0.0179538
0.000786718
0.0178451
0.000448908
0.0177542
0.00043647
0.0177389
0.000201728
0.0178234
-0.00020724
0.018107
-0.00115724
0.0185844
-0.00219681
0.0192602
-0.00327143
0.020031
-0.00381417
0.0208849
-0.00422788
0.0217877
-0.00443985
0.0227976
-0.00493951
0.0239011
-0.00539231
0.0250935
-0.00583065
0.0262843
-0.00572539
0.0274258
-0.00528558
0.0284993
-0.00456106
0.0295989
-0.00426505
0.0308597
-0.00459896
0.0324646
-0.00600758
0.0345513
-0.00813416
0.0372856
-0.0113553
0.0406619
-0.0144948
0.0447026
-0.0180523
0.0492774
-0.0206795
0.0543159
-0.0232001
0.0597044
-0.02476
0.0652466
-0.0256205
0.0709614
-0.026202
0.0766607
-0.0261536
0.0825892
-0.0269461
0.0884738
-0.026751
0.0946246
-0.0277648
0.100679
-0.0273732
0.107137
-0.0290866
0.113581
-0.0291025
0.120702
-0.0321629
0.127699
-0.0315811
0.135671
-0.0364686
0.143185
-0.0338016
0.152232
-0.0429555
0.160742
-0.0381511
0.17132
-0.0551279
-0.0638174
0.079357
0.0098752
-0.0790119
0.0797331
0.0102677
0.0801333
0.0106541
0.0805447
0.0110193
0.0809504
0.0113521
0.0813323
0.0116421
0.0816743
0.0118827
0.081964
0.012072