/*--------------------------------*- C++ -*----------------------------------*\
| =========                 |                                                 |
| \\      /  F ield         | OpenFOAM: The Open Source CFD Toolbox           |
|  \\    /   O peration     | Version:  2412                                  |
|   \\  /    A nd           | Website:  www.openfoam.com                      |
|    \\/     M anipulation  |                                                 |
\*---------------------------------------------------------------------------*/
FoamFile
{
    version     2.0;
    format      ascii;
    arch        "LSB;label=32;scalar=64";
    class       volScalarField;
    location    "1.605";
    object      Co;
}
// * * * * * * * * * * * * * * * * * * * * * * * * * * * * * * * * * * * * * //

dimensions      [0 0 0 0 0 0 0];

internalField   nonuniform List<scalar> 
12600
(
0.315235
0.176906
0.100157
0.0629966
0.0449943
0.0350608
0.0286545
0.0240688
0.020592
0.0178543
0.0156385
0.0138077
0.0122704
0.0109625
0.00983785
0.00886215
0.00800924
0.00725884
0.00659495
0.00600474
0.00547781
0.0050056
0.00458103
0.00419815
0.00385196
0.00353818
0.00325316
0.00299376
0.00275725
0.00254126
0.00234371
0.00216277
0.00199685
0.0018445
0.00170448
0.00157565
0.00145701
0.00134766
0.00124678
0.00115366
0.00106763
0.000988097
0.000914529
0.000846439
0.000783383
0.000724958
0.0006708
0.000620572
0.00057397
0.000530715
0.000490551
0.000453244
0.00041858
0.000386359
0.000356405
0.000328546
0.000302633
0.000278522
0.000256087
0.000235202
0.000215764
0.000197664
0.000180815
0.000165121
0.000150514
0.000136906
0.000124244
0.000112448
0.00010148
9.12634e-05
8.17749e-05
7.29392e-05
6.47494e-05
5.7128e-05
5.00851e-05
4.3538e-05
3.75154e-05
3.19254e-05
2.68174e-05
2.20858e-05
1.78038e-05
1.38477e-05
1.03169e-05
7.0648e-06
4.2194e-06
2.26047e-06
2.79364e-06
4.5412e-06
6.14763e-06
7.35305e-06
8.49021e-06
9.22512e-06
9.94628e-06
1.03396e-05
1.06246e-05
1.08226e-05
1.09275e-05
1.03086e-05
1.14312e-05
1.07756e-05
1.10573e-05
1.04143e-05
9.18789e-06
1.20746e-05
1.13587e-05
9.83029e-06
9.24072e-06
1.09306e-05
1.0266e-05
6.33009e-06
1.61195e-05
1.71992e-05
1.44617e-05
1.27251e-05
2.60069e-05
5.59126e-05
3.99974e-05
4.68905e-05
5.22324e-05
4.53939e-05
0.478551
0.376993
0.276715
0.202699
0.153273
0.120623
0.0982706
0.0821483
0.0699642
0.0604195
0.0527359
0.0464185
0.041137
0.0366619
0.0328278
0.0295124
0.026623
0.0240879
0.0218509
0.019867
0.0180996
0.0165191
0.0151007
0.013824
0.0126715
0.0116286
0.0106827
0.00982304
0.00904031
0.00832639
0.0076742
0.00707756
0.006531
0.00602971
0.00556942
0.00514632
0.00475704
0.00439854
0.0040681
0.0037633
0.00348192
0.00322199
0.00298172
0.00275949
0.00255381
0.00236336
0.00218692
0.00202338
0.00187173
0.00173103
0.00160046
0.00147922
0.00136663
0.00126202
0.0011648
0.00107442
0.000990383
0.000912209
0.000839493
0.000771818
0.000708848
0.000650219
0.000595657
0.000544839
0.000497545
0.000453485
0.000412492
0.000374296
0.000338779
0.000305682
0.000274941
0.000246297
0.000219739
0.000195
0.000172128
0.000150835
0.000131233
0.000113
9.63225e-05
8.08265e-05
6.67835e-05
5.37526e-05
4.21011e-05
3.13053e-05
2.18311e-05
1.30773e-05
8.84704e-06
1.09907e-05
1.62368e-05
2.01808e-05
2.39574e-05
2.63793e-05
2.88541e-05
3.02149e-05
3.11611e-05
3.22186e-05
3.21921e-05
3.05619e-05
3.48996e-05
3.28004e-05
3.56083e-05
3.20784e-05
2.78441e-05
3.91389e-05
3.66824e-05
3.213e-05
2.90923e-05
3.6583e-05
3.40229e-05
1.96506e-05
5.51783e-05
6.14553e-05
5.67131e-05
3.7188e-05
8.7388e-05
0.000206363
0.000133825
0.000164055
0.000194413
0.000150403
0.51308
0.469156
0.397735
0.325793
0.264778
0.216644
0.179706
0.151347
0.129236
0.111655
0.0974022
0.0856477
0.0758107
0.067476
0.0603402
0.0541763
0.0488113
0.0441107
0.0399687
0.0363004
0.0330373
0.0301232
0.0275116
0.0251638
0.0230472
0.0211342
0.0194012
0.0178279
0.016397
0.0150932
0.0139033
0.0128158
0.0118205
0.0109084
0.0100716
0.00930307
0.0085965
0.00794628
0.0073474
0.00679535
0.00628607
0.00581591
0.00538158
0.00498008
0.00460872
0.00426503
0.00394679
0.00365196
0.00337869
0.00312529
0.00289022
0.00267207
0.00246954
0.00228144
0.0021067
0.00194431
0.00179336
0.00165299
0.00152245
0.00140099
0.00128801
0.00118284
0.00108497
0.00099384
0.000909037
0.000830037
0.000756538
0.000688048
0.000624359
0.000564998
0.000509851
0.000458443
0.000410762
0.000366314
0.000325196
0.000286871
0.000251559
0.000218657
0.000188524
0.000160456
0.000134976
0.00011125
8.99845e-05
7.01866e-05
5.27539e-05
3.65372e-05
2.25848e-05
1.82064e-05
2.52275e-05
3.21913e-05
3.8959e-05
4.32008e-05
4.77281e-05
5.01603e-05
5.1741e-05
5.42641e-05
5.3398e-05
5.10959e-05
6.0076e-05
5.61981e-05
6.47221e-05
5.63132e-05
4.64936e-05
7.16765e-05
6.74694e-05
5.96435e-05
5.16807e-05
6.88717e-05
6.4661e-05
3.2683e-05
0.000107044
0.000127073
0.000123867
6.75451e-05
0.000172886
0.000435922
0.000265833
0.000333441
0.000413288
0.000280586
0.505004
0.49167
0.453672
0.403185
0.350695
0.301921
0.259328
0.223354
0.193406
0.168537
0.147802
0.130389
0.11564
0.103045
0.092203
0.0828037
0.0746027
0.0674059
0.0610579
0.055433
0.0504281
0.0459586
0.0419539
0.0383548
0.0351115
0.0321815
0.0295286
0.0271216
0.0249336
0.0229412
0.021124
0.0194642
0.0179461
0.0165557
0.0152809
0.0141108
0.0130356
0.0120468
0.0111366
0.0102979
0.00952472
0.00881126
0.0081525
0.00754385
0.00698115
0.00646062
0.00597885
0.00553272
0.0051194
0.00473628
0.00438102
0.00405143
0.00374558
0.00346161
0.0031979
0.00295289
0.00272522
0.00251356
0.00231679
0.00213374
0.0019635
0.00180506
0.00165766
0.00152041
0.00139271
0.00127376
0.00116309
0.00105996
0.000964047
0.000874644
0.000791565
0.000714099
0.000642213
0.000575171
0.000513101
0.000455206
0.0004018
0.000351983
0.000306281
0.000263645
0.000224848
0.000188642
0.000156086
0.000125686
9.8801e-05
7.36844e-05
5.19366e-05
3.3027e-05
3.21886e-05
4.25938e-05
5.27675e-05
5.90884e-05
6.6015e-05
6.97061e-05
7.19881e-05
7.65619e-05
7.42285e-05
7.19037e-05
8.63338e-05
8.0082e-05
9.76809e-05
8.28144e-05
6.40108e-05
0.000108038
0.000102584
9.19872e-05
7.65707e-05
0.000106544
0.000101034
4.79327e-05
0.000167469
0.000208805
0.000212394
0.000108038
0.000273117
0.00072927
0.000435425
0.000538862
0.000693672
0.000421893
0.488789
0.483933
0.465675
0.435716
0.399009
0.359864
0.321377
0.285456
0.25302
0.224318
0.199202
0.177338
0.158323
0.141763
0.1273
0.114624
0.103473
0.0936258
0.0848978
0.077135
0.0702081
0.0640084
0.0584439
0.0534365
0.0489197
0.0448364
0.0411373
0.03778
0.0347276
0.0319478
0.0294125
0.0270969
0.0249792
0.0230402
0.0212626
0.0196315
0.0181331
0.0167555
0.0154877
0.0143201
0.0132439
0.0122512
0.0113349
0.0104886
0.00970646
0.00898319
0.00831401
0.00769452
0.00712078
0.00658914
0.00609631
0.00563924
0.0052152
0.00482161
0.00445621
0.0041168
0.0038015
0.00350844
0.00323604
0.00298271
0.00274713
0.00252793
0.00232402
0.00213418
0.00195756
0.00179305
0.00163999
0.00149736
0.0013647
0.00124103
0.00112607
0.00101886
0.000919323
0.000826455
0.000740409
0.000660101
0.000585933
0.000516687
0.000453055
0.000393615
0.0003394
0.000288718
0.000242996
0.000200205
0.000162195
0.000126573
9.55552e-05
6.6513e-05
4.91202e-05
5.03909e-05
6.44919e-05
7.32615e-05
8.303e-05
8.82343e-05
9.14282e-05
9.85787e-05
9.43601e-05
9.26855e-05
0.000113113
0.000103487
0.00013368
0.000110931
7.95442e-05
0.00014681
0.000140961
0.000128803
0.000103415
0.000148551
0.000141807
6.88608e-05
0.000232908
0.000306093
0.000322489
0.000158693
0.000380337
0.00107083
0.000639207
0.000765539
0.00101762
0.00055926
0.474565
0.468841
0.45786
0.439907
0.416098
0.388308
0.358431
0.328104
0.298556
0.270597
0.244692
0.221035
0.199644
0.180419
0.163203
0.147809
0.13405
0.121744
0.110724
0.100842
0.0919645
0.0839753
0.0767725
0.070267
0.064381
0.0590467
0.0542044
0.0498021
0.0457941
0.0421399
0.0388039
0.0357549
0.0329648
0.0304088
0.0280649
0.0259135
0.0239369
0.0221193
0.0204465
0.0189059
0.0174859
0.0161762
0.0149674
0.013851
0.0128195
0.0118657
0.0109833
0.0101667
0.00941047
0.00870987
0.00806054
0.00745844
0.00689996
0.00638169
0.00590061
0.00545385
0.00503888
0.00465326
0.00429487
0.00396162
0.00365177
0.00336349
0.00309534
0.00284572
0.00261349
0.00239719
0.00219594
0.0020084
0.00183394
0.00167129
0.00152006
0.00137899
0.00124796
0.00112566
0.00101226
0.000906364
0.000808457
0.000716973
0.000632773
0.000554032
0.000482053
0.000414663
0.000353682
0.000296498
0.000245492
0.000197567
0.000155616
0.000116173
8.26023e-05
6.43878e-05
7.31093e-05
8.48237e-05
9.79847e-05
0.000105037
0.000109503
0.000119706
0.000113411
0.000113083
0.000139831
0.000125388
0.000171856
0.000139821
9.5977e-05
0.000186665
0.000181454
0.000169582
0.000131831
0.00019397
0.000185628
9.49837e-05
0.000300404
0.000413821
0.000449411
0.000219187
0.000488305
0.00144481
0.000871
0.000999848
0.0013645
0.000677129
0.463244
0.454874
0.44499
0.431879
0.415265
0.39559
0.373585
0.350096
0.325941
0.301823
0.278297
0.255767
0.234503
0.214658
0.196296
0.179415
0.163967
0.149874
0.137044
0.125377
0.114774
0.105139
0.0963802
0.0884147
0.0811655
0.0745629
0.0685441
0.0630525
0.0580373
0.0534529
0.0492585
0.0454173
0.0418967
0.038667
0.0357018
0.0329773
0.030472
0.0281666
0.0260436
0.0240873
0.0222834
0.020619
0.0190825
0.0176632
0.0163514
0.0151383
0.0140161
0.0129773
0.0120153
0.0111241
0.0102981
0.00953226
0.00882189
0.0081627
0.00755085
0.00698269
0.00645499
0.00596464
0.00550895
0.00508526
0.00469133
0.00432484
0.00398396
0.00366664
0.00337141
0.00309644
0.00284058
0.00260215
0.00238031
0.00217345
0.00198107
0.00180157
0.00163476
0.00147902
0.00133451
0.00119949
0.00107453
0.000957672
0.000849963
0.000749132
0.000656771
0.000570178
0.0004916
0.000417782
0.000351687
0.000289443
0.000234691
0.000183032
0.000138765
9.65348e-05
8.37082e-05
9.27016e-05
0.000109926
0.000119265
0.000125516
0.000139225
0.000130905
0.000132622
0.000165856
0.000144671
0.00021128
0.000168479
0.000116816
0.000226363
0.000222819
0.000213621
0.000161351
0.000241974
0.000231161
0.000125308
0.000367575
0.000527476
0.000588392
0.000288187
0.000592238
0.00183567
0.0011224
0.00122938
0.00171172
0.000759818
0.453882
0.443452
0.432818
0.420928
0.407317
0.391941
0.374981
0.356741
0.337597
0.317931
0.298106
0.278444
0.259219
0.240647
0.222892
0.206068
0.190242
0.175446
0.161679
0.14892
0.137131
0.126261
0.116257
0.107059
0.0986104
0.0908525
0.0837307
0.0771929
0.0711906
0.0656786
0.0606151
0.0559619
0.0516838
0.0477487
0.0441274
0.0407932
0.0377217
0.0348909
0.0322805
0.0298721
0.0276491
0.0255961
0.0236992
0.0219458
0.0203243
0.018824
0.0174354
0.0161496
0.0149585
0.0138546
0.0128313
0.0118823
0.0110019
0.0101848
0.00942629
0.00872186
0.00806754
0.00745949
0.00689439
0.00636893
0.00588034
0.00542577
0.00500294
0.00460931
0.00424305
0.00390189
0.0035844
0.0032885
0.00301313
0.00275632
0.0025174
0.00229443
0.00208712
0.0018935
0.00171372
0.00154566
0.00138996
0.00124425
0.00110977
0.000983741
0.000868086
0.000759505
0.000660723
0.000567763
0.000484244
0.000405418
0.000335771
0.000269858
0.00021305
0.000158703
0.000114305
9.77933e-05
0.00011772
0.000129914
0.000138626
0.000156295
0.000146248
0.000150708
0.000190498
0.000160124
0.000250957
0.000195738
0.000140711
0.000264772
0.000263728
0.000260014
0.000191392
0.000291796
0.00027714
0.000159349
0.000432616
0.000643626
0.000735175
0.000363564
0.00068866
0.00222865
0.0013835
0.001443
0.00203593
0.000792102
0.445793
0.434042
0.422501
0.410586
0.397935
0.384413
0.370032
0.354889
0.339127
0.322913
0.306416
0.289807
0.273249
0.256895
0.24088
0.225324
0.210324
0.195958
0.182283
0.169336
0.157135
0.145683
0.134972
0.124981
0.115684
0.107049
0.0990411
0.0916235
0.0847588
0.0784102
0.0725417
0.0671187
0.0621084
0.0574797
0.0532037
0.0492531
0.0456027
0.0422292
0.0391108
0.0362276
0.0335612
0.0310945
0.028812
0.0266993
0.0247431
0.0229313
0.0212527
0.019697
0.0182549
0.0169175
0.0156769
0.0145257
0.0134573
0.0124653
0.0115441
0.0106882
0.00989302
0.00915385
0.0084667
0.00782762
0.00723326
0.00668016
0.00616557
0.00568645
0.00524053
0.00482511
0.00443842
0.00407794
0.00374239
0.00342938
0.00313807
0.00286612
0.00261315
0.00237678
0.00215716
0.00195173
0.00176125
0.00158285
0.00141798
0.00126332
0.00112114
0.000987478
0.000865595
0.000750702
0.000647151
0.000549213
0.00046233
0.00037987
0.000308431
0.00023988
0.000183302
0.000127817
0.000120003
0.000135789
0.0001478
0.000169932
0.000158699
0.000166605
0.000212984
0.000170413
0.00028983
0.000220277
0.000165706
0.000300872
0.000302775
0.000307653
0.000221227
0.000342679
0.000322372
0.000196382
0.000494241
0.000759285
0.000885592
0.000442754
0.000775188
0.00261042
0.00164394
0.00163107
0.00231484
0.000760226
0.438637
0.42604
0.413802
0.40159
0.38915
0.376345
0.363143
0.349576
0.335708
0.321621
0.307393
0.2931
0.278817
0.264617
0.250569
0.236741
0.2232
0.210006
0.197217
0.184881
0.173039
0.161722
0.150953
0.140744
0.131099
0.122014
0.11348
0.105482
0.0980005
0.091015
0.0845014
0.0784349
0.0727904
0.0675427
0.062667
0.0581392
0.0539362
0.0500357
0.0464168
0.0430595
0.0399453
0.0370564
0.0343767
0.0318908
0.0295845
0.0274445
0.0254587
0.0236156
0.0219046
0.0203161
0.018841
0.0174709
0.0161981
0.0150154
0.0139163
0.0128945
0.0119446
0.0110611
0.0102393
0.0094747
0.00876327
0.00810098
0.00748455
0.00691039
0.00637585
0.00587769
0.00541381
0.00498125
0.00457844
0.00420255
0.00385256
0.00352571
0.0032215
0.00293712
0.0026727
0.00242522
0.00219553
0.00198024
0.00178103
0.00159396
0.00142171
0.00125955
0.00111137
0.000971444
0.000844969
0.000725102
0.000618368
0.000516797
0.000428376
0.000343292
0.000272526
0.00020188
0.000151723
0.000135481
0.000151781
0.000178978
0.000167332
0.000179421
0.000232433
0.000174053
0.000326776
0.000240627
0.00019112
0.000333758
0.000338484
0.00035525
0.000249965
0.000393812
0.000365743
0.000235501
0.000551592
0.000871856
0.0010357
0.000523087
0.000853041
0.00297203
0.00189391
0.00178541
0.00252937
0.000653416
0.432236
0.419071
0.406336
0.393826
0.381369
0.368841
0.356188
0.34341
0.330541
0.317631
0.304731
0.291887
0.279136
0.266512
0.254043
0.241755
0.229672
0.21782
0.206226
0.194919
0.183928
0.173279
0.163
0.153111
0.143632
0.134575
0.12595
0.11776
0.110004
0.102678
0.0957729
0.0892778
0.083179
0.0774613
0.0721079
0.0671015
0.0624244
0.0580586
0.0539864
0.0501903
0.0466534
0.0433595
0.0402929
0.0374386
0.0347825
0.0323113
0.0300124
0.0278738
0.0258845
0.024034
0.0223127
0.0207114
0.0192217
0.0178357
0.016546
0.0153458
0.0142288
0.0131891
0.0122211
0.0113198
0.0104805
0.00969869
0.00897054
0.00829193
0.00765976
0.00707031
0.00652113
0.00600876
0.00553138
0.00508568
0.00467046
0.00428247
0.00392115
0.00358316
0.00326868
0.00297412
0.00270048
0.00244376
0.00220594
0.00198236
0.00177617
0.0015818
0.00140381
0.00123545
0.00108287
0.000937952
0.00080847
0.000684928
0.000576898
0.000472668
0.000385365
0.000298116
0.000230392
0.000165592
0.000149019
0.000182078
0.000170982
0.000188085
0.000247814
0.000169367
0.000360589
0.00025517
0.000216067
0.000362608
0.000369311
0.00040137
0.000276536
0.000444271
0.000406203
0.00027565
0.000604111
0.000979045
0.00118191
0.000602092
0.00093412
0.00331586
0.00212504
0.00189934
0.00266591
0.000465846
0.42646
0.412899
0.399811
0.387059
0.374523
0.362102
0.349732
0.337391
0.325087
0.312847
0.300709
0.28871
0.276878
0.26524
0.253812
0.242604
0.231624
0.220874
0.210357
0.200078
0.190044
0.180263
0.170746
0.161505
0.152554
0.143907
0.135574
0.127566
0.119893
0.112558
0.105566
0.098917
0.0926078
0.0866339
0.0809887
0.0756633
0.0706479
0.065931
0.0615007
0.0573443
0.0534488
0.049801
0.0463879
0.0431965
0.0402142
0.0374287
0.0348281
0.032401
0.0301366
0.0280244
0.0260547
0.024218
0.0225057
0.0209094
0.0194215
0.0180344
0.0167416
0.0155364
0.0144131
0.0133657
0.0123894
0.011479
0.0106302
0.00983847
0.00910029
0.00841142
0.00776911
0.00716941
0.00661024
0.00608781
0.00560076
0.00514532
0.00472086
0.00432352
0.00395349
0.00360661
0.00328405
0.00298114
0.00270018
0.00243573
0.00219147
0.00196087
0.00174929
0.0015488
0.00136664
0.00119325
0.00103783
0.000889157
0.000758605
0.000632313
0.000525829
0.000419303
0.000335696
0.000250114
0.000180135
0.00017767
0.000168175
0.000191329
0.000257889
0.000154433
0.000389972
0.000262126
0.000239473
0.000386636
0.000393624
0.000444467
0.000299686
0.000492964
0.000442742
0.000315665
0.000651375
0.00107878
0.00132105
0.000677685
0.00100618
0.0036229
0.00233089
0.00196725
0.00271807
0.000226675
0.421216
0.407374
0.394032
0.381091
0.368468
0.356081
0.343869
0.331796
0.319851
0.308041
0.296385
0.28491
0.273641
0.262601
0.251808
0.241273
0.231002
0.220996
0.211248
0.201755
0.192508
0.183502
0.174733
0.166197
0.157897
0.149833
0.142009
0.134432
0.127106
0.120039
0.113234
0.106698
0.100434
0.0944428
0.0887258
0.0832816
0.0781072
0.0731986
0.0685501
0.064155
0.0600056
0.0560935
0.0524097
0.0489446
0.0456885
0.0426317
0.0397642
0.0370761
0.0345579
0.0322001
0.0299937
0.0279296
0.0259996
0.0241953
0.0225092
0.0209337
0.019462
0.0180873
0.0168035
0.0156044
0.0144849
0.0134394
0.0124633
0.0115515
0.0107004
0.00990519
0.00916291
0.00846913
0.00782158
0.00721599
0.00665085
0.0061219
0.00562846
0.0051661
0.00473509
0.00433063
0.00395411
0.00360012
0.00327136
0.0029615
0.00267486
0.00240382
0.00215465
0.00191809
0.00170263
0.00149708
0.00131228
0.00113501
0.000978735
0.000827158
0.000698543
0.000569763
0.000467633
0.000362914
0.000274431
0.000214033
0.000157002
0.000187677
0.00026115
0.000127012
0.000413497
0.000259533
0.000260091
0.000405006
0.000409679
0.000482913
0.000317961
0.000538587
0.000474348
0.000354277
0.000692928
0.00116913
0.0014504
0.000748251
0.00106827
0.00388542
0.00250716
0.00199697
0.00269916
0.000307148
0.416429
0.402385
0.388858
0.375775
0.363073
0.350688
0.338565
0.326666
0.314967
0.303459
0.292146
0.28104
0.270159
0.259518
0.249136
0.239025
0.229195
0.21965
0.210388
0.201405
0.192693
0.184242
0.176041
0.16808
0.16035
0.152841
0.14555
0.13847
0.131601
0.124941
0.118492
0.112254
0.106231
0.100424
0.094836
0.0894685
0.0843224
0.0793981
0.0746947
0.0702104
0.0659425
0.0618873
0.0580402
0.054396
0.0509486
0.0476916
0.0446182
0.0417209
0.0389925
0.0364254
0.0340121
0.0317448
0.0296163
0.0276191
0.0257463
0.0239907
0.0223458
0.020805
0.0193625
0.0180118
0.016748
0.0155651
0.0144586
0.0134231
0.0124549
0.0115487
0.0107016
0.00990866
0.00916753
0.0084735
0.007825
0.00721725
0.00664961
0.00611707
0.00562003
0.00515303
0.00471773
0.00430791
0.00392677
0.00356699
0.00323363
0.00291786
0.002627
0.00235029
0.00209765
0.00185605
0.0016382
0.00142862
0.00124316
0.00106278
0.000908794
0.000754465
0.000630835
0.000503847
0.000396991
0.000319208
0.000203978
0.000185892
0.000255703
9.11752e-05
0.000429567
0.000245212
0.000276519
0.000416733
0.000415557
0.000514998
0.000329693
0.000579592
0.000499968
0.000390118
0.000728115
0.00124823
0.00156757
0.000812643
0.00112019
0.0040965
0.00265172
0.00199992
0.00263188
0.000668024
0.412038
0.397847
0.384187
0.370998
0.358232
0.345836
0.333764
0.321979
0.310452
0.299166
0.288111
0.277288
0.266704
0.256368
0.24629
0.236481
0.226952
0.21771
0.208757
0.200093
0.191715
0.183614
0.175783
0.16821
0.160884
0.153793
0.146926
0.140272
0.133822
0.127569
0.121506
0.11563
0.109936
0.104424
0.0990923
0.0939406
0.0889692
0.0841786
0.0795693
0.0751415
0.070895
0.066829
0.0629422
0.0592328
0.0556981
0.0523349
0.0491396
0.0461079
0.0432351
0.0405161
0.0379456
0.035518
0.0332275
0.0310682
0.0290343
0.0271199
0.0253192
0.0236262
0.0220358
0.0205419
0.0191398
0.0178238
0.0165895
0.0154317
0.0143464
0.0133285
0.0123749
0.0114806
0.0106431
0.00985745
0.0091221
0.00843183
0.00778609
0.00717932
0.00661215
0.0060784
0.00558014
0.00511027
0.00467259
0.0042587
0.00387452
0.00350989
0.00317333
0.00285242
0.0025587
0.00227708
0.00202239
0.00177663
0.00155834
0.00134539
0.00116253
0.000979059
0.000830637
0.000677922
0.000549958
0.000451286
0.000315779
0.00024776
0.00025886
6.03662e-05
0.000436355
0.000216728
0.000287212
0.000420547
0.000409085
0.000538902
0.000332967
0.000614174
0.000518457
0.000421697
0.000755934
0.0013142
0.00167042
0.000870078
0.001162
0.00424911
0.00276454
0.0019431
0.00249962
0.00107855
0.407991
0.393695
0.379938
0.366673
0.353857
0.341448
0.329406
0.317698
0.306293
0.29517
0.284313
0.273714
0.263369
0.25328
0.243451
0.233887
0.224596
0.215583
0.206854
0.19841
0.19025
0.182373
0.174773
0.167441
0.16037
0.153548
0.146964
0.140608
0.134466
0.12853
0.122787
0.11723
0.111851
0.106642
0.101597
0.0967137
0.0919873
0.0874157
0.0829973
0.0787309
0.0746158
0.0706514
0.0668372
0.0631726
0.0596567
0.0562884
0.0530663
0.0499882
0.0470521
0.0442551
0.0415942
0.0390659
0.0366666
0.0343921
0.0322383
0.0302007
0.028275
0.0264563
0.0247402
0.0231219
0.0215971
0.0201608
0.0188091
0.017537
0.0163409
0.0152159
0.0141592
0.0131655
0.0122327
0.0113557
0.0105329
0.00975894
0.00903345
0.00835034
0.00771061
0.00710738
0.00654322
0.00601014
0.00551266
0.00504121
0.00460276
0.00418564
0.00379981
0.00343094
0.00309249
0.00276701
0.00247178
0.00218595
0.00193113
0.00168171
0.00146631
0.00124985
0.00107308
0.000890866
0.000738697
0.000614958
0.000457645
0.000370704
0.000333743
6.07267e-05
0.000431764
0.000171355
0.000290496
0.000414737
0.000387714
0.000552615
0.000325561
0.000640255
0.000528529
0.000447373
0.000774912
0.00136508
0.00175682
0.000919983
0.00119365
0.00433572
0.00284783
0.00182158
0.00230945
0.0015089
0.404247
0.389876
0.37605
0.36273
0.349878
0.337459
0.325437
0.313782
0.302466
0.291465
0.280759
0.270335
0.260184
0.2503
0.240681
0.231327
0.222241
0.213425
0.204882
0.196615
0.188624
0.18091
0.173468
0.166295
0.159384
0.152729
0.146321
0.14015
0.134205
0.128477
0.122954
0.117627
0.112484
0.107518
0.102718
0.0980774
0.0935891
0.0892472
0.0850467
0.0809836
0.0770545
0.073257
0.0695889
0.0660486
0.062635
0.0593469
0.0561834
0.0531432
0.0502255
0.0474286
0.0447513
0.0421915
0.0397474
0.0374165
0.0351964
0.0330841
0.0310768
0.0291711
0.0273638
0.0256511
0.0240299
0.0224961
0.0210465
0.0196767
0.018384
0.0171637
0.0160135
0.0149284
0.0139067
0.012943
0.0120366
0.0111815
0.010378
0.00961945
0.00890739
0.00823429
0.00760338
0.00700574
0.0064468
0.00591575
0.00542076
0.00494857
0.00451074
0.0040909
0.00370466
0.00333196
0.00299287
0.00266332
0.00236843
0.0020787
0.00182709
0.00157368
0.00136486
0.0011491
0.000969353
0.00081607
0.000634737
0.000523619
0.00046793
0.000167013
0.000479147
0.000106362
0.000284654
0.000396938
0.000348333
0.000553813
0.000304864
0.000655461
0.000528698
0.000465335
0.000783001
0.00139876
0.00182445
0.0009618
0.00121462
0.00434857
0.00291598
0.00164376
0.00210251
0.00197196
0.400768
0.386346
0.372473
0.359115
0.34624
0.333815
0.321808
0.310193
0.298942
0.288033
0.277444
0.267158
0.257163
0.247448
0.238007
0.228835
0.219928
0.211287
0.202912
0.194803
0.18696
0.179384
0.172072
0.165021
0.158228
0.151688
0.145394
0.13934
0.133517
0.127916
0.122529
0.117345
0.112356
0.107552
0.102923
0.098461
0.0941565
0.0900019
0.0859899
0.0821139
0.078368
0.0747471
0.0712469
0.0678635
0.0645941
0.0614359
0.0583868
0.0554451
0.0526093
0.0498779
0.0472497
0.0447236
0.0422982
0.039972
0.0377438
0.0356117
0.0335741
0.0316287
0.0297737
0.0280064
0.0263249
0.0247258
0.0232073
0.0217656
0.020399
0.0191032
0.0178769
0.0167153
0.0156175
0.0145782
0.0135973
0.0126689
0.0117936
0.0109647
0.0101843
0.00944434
0.00874889
0.00808811
0.00746851
0.006878
0.00632617
0.00579803
0.00530702
0.00483452
0.00439857
0.00397626
0.0035908
0.00321455
0.0028766
0.00254306
0.00225184
0.00195763
0.00171309
0.00145964
0.00124877
0.00106121
0.000853218
0.000712681
0.0006357
0.000305747
0.000601086
0.000132541
0.000315686
0.000363791
0.000286969
0.000539662
0.00026774
0.000657086
0.000517221
0.000473592
0.000777456
0.00141281
0.00187055
0.000994822
0.00122656
0.00428361
0.00305496
0.00153123
0.00193569
0.00246576
0.397526
0.383069
0.369166
0.355784
0.342895
0.330468
0.318476
0.306892
0.295693
0.284855
0.274357
0.264181
0.254311
0.244736
0.235443
0.226425
0.217676
0.209191
0.200968
0.193004
0.185299
0.177851
0.170657
0.163716
0.157025
0.15058
0.144375
0.138406
0.132666
0.127148
0.121846
0.116751
0.111855
0.107149
0.102626
0.0982768
0.0940926
0.0900654
0.0861872
0.0824504
0.0788478
0.0753728
0.0720192
0.0687814
0.0656545
0.062634
0.0597162
0.0568975
0.0541754
0.0515471
0.0490107
0.0465642
0.0442062
0.0419351
0.0397497
0.0376484
0.0356302
0.0336935
0.0318371
0.0300592
0.0283586
0.0267331
0.0251814
0.0237009
0.0222904
0.0209467
0.0196689
0.0184531
0.0172991
0.0162019
0.0151621
0.0141738
0.0132387
0.0123497
0.0115099
0.0107105
0.0099569
0.00923816
0.00856216
0.00791549
0.00730939
0.00672703
0.006184
0.00565923
0.00517355
0.00470088
0.00426801
0.0038433
0.00346035
0.00308036
0.00274683
0.00240844
0.00212489
0.00182974
0.00158425
0.00135763
0.00112003
0.000944778
0.000843064
0.000481284
0.000764254
0.000202286
0.000426773
0.000380059
0.000210289
0.000506495
0.000210301
0.000642033
0.000492054
0.000470017
0.000754679
0.00140436
0.00189169
0.00101805
0.00125948
0.00416762
0.00320213
0.0014754
0.00182486
0.00294758
0.394492
0.380015
0.366094
0.3527
0.339805
0.327382
0.315404
0.303848
0.29269
0.281909
0.271484
0.261396
0.251628
0.242166
0.232997
0.22411
0.215497
0.20715
0.199063
0.191233
0.183655
0.176327
0.169247
0.162411
0.155816
0.149458
0.143335
0.13744
0.131769
0.126317
0.121077
0.116043
0.111207
0.106564
0.102105
0.0978231
0.093711
0.0897611
0.0859658
0.0823178
0.0788098
0.0754349
0.0721864
0.0690579
0.0660434
0.0631372
0.0603344
0.05763
0.05502
0.0525004
0.0500679
0.0477195
0.0454527
0.0432649
0.0411544
0.0391191
0.0371578
0.0352685
0.0334504
0.0317016
0.0300214
0.0284078
0.0268603
0.0253764
0.0239561
0.0225962
0.021297
0.0200548
0.0188701
0.0177385
0.0166614
0.0156329
0.0146557
0.0137225
0.0128375
0.0119915
0.0111909
0.010424
0.00970024
0.00900477
0.00835078
0.00771946
0.00712884
0.00655522
0.00602253
0.00550125
0.00502218
0.00454926
0.00412118
0.00369361
0.00331643
0.00293148
0.00260653
0.00226625
0.00198309
0.00171288
0.00144261
0.00122752
0.00109696
0.000700657
0.000962678
0.000299028
0.000585431
0.000498902
0.000249168
0.000532576
0.00014701
0.000609978
0.000450928
0.000452536
0.000709895
0.00136969
0.00188352
0.00103037
0.00128508
0.00397903
0.0033599
0.00145247
0.00173899
0.00340048
0.391646
0.37716
0.36323
0.349832
0.336938
0.324523
0.312561
0.30103
0.289908
0.279174
0.268808
0.258792
0.249107
0.239738
0.230672
0.221897
0.2134
0.205172
0.197207
0.189496
0.182036
0.174821
0.167848
0.161112
0.154611
0.14834
0.142295
0.136472
0.130867
0.125475
0.12029
0.115306
0.110519
0.105921
0.101507
0.0972695
0.0932026
0.0892994
0.0855535
0.081958
0.0785065
0.0751923
0.072009
0.0689505
0.0660105
0.0631833
0.0604632
0.0578449
0.0553235
0.052894
0.0505524
0.0482945
0.0461168
0.0440157
0.0419887
0.0400326
0.0381455
0.0363248
0.0345692
0.0328762
0.0312451
0.0296735
0.0281611
0.0267053
0.0253064
0.0239613
0.0226709
0.0214314
0.0202443
0.0191051
0.0180159
0.016971
0.015974
0.0150173
0.0141063
0.0132312
0.0123998
0.0115995
0.0108414
0.0101092
0.00941814
0.00874741
0.00811773
0.00750254
0.00692924
0.00636455
0.0058437
0.00532574
0.00485511
0.00438121
0.00396123
0.00352918
0.00316207
0.00277448
0.00245157
0.0021341
0.00182835
0.00156891
0.00140492
0.000971698
0.00120386
0.000472725
0.000779447
0.000651769
0.00031492
0.000644358
0.000208759
0.000650048
0.000476309
0.000480641
0.000636361
0.00135145
0.0018855
0.00108808
0.00135449
0.00385798
0.00365426
0.0014654
0.00166873
0.00381049
0.388967
0.374479
0.36055
0.347154
0.334267
0.321863
0.309919
0.298413
0.287323
0.27663
0.266314
0.256357
0.246741
0.237451
0.22847
0.219788
0.21139
0.203266
0.195407
0.187804
0.18045
0.173339
0.166466
0.159826
0.153415
0.147227
0.14126
0.135509
0.129969
0.124636
0.119505
0.11457
0.109828
0.105271
0.100894
0.0966923
0.0926592
0.088789
0.0850756
0.0815132
0.0780958
0.0748175
0.0716725
0.0686549
0.0657591
0.0629796
0.060311
0.0577478
0.0552852
0.052918
0.0506418
0.0484518
0.0463442
0.0443147
0.0423599
0.0404761
0.0386605
0.0369099
0.035222
0.033594
0.0320244
0.0305103
0.029051
0.0276435
0.026288
0.0249811
0.0237237
0.0225119
0.0213476
0.0202257
0.0191494
0.0181125
0.0171194
0.016162
0.0152469
0.0143635
0.0135212
0.0127062
0.0119313
0.0111786
0.0104658
0.00976962
0.00911385
0.00846877
0.00786556
0.00726681
0.00671265
0.00615669
0.00564976
0.00513419
0.00467547
0.00419859
0.00379117
0.00335634
0.00299338
0.00262671
0.00228346
0.00197648
0.00177449
0.00130257
0.00149601
0.00073017
0.00101751
0.000843378
0.000403697
0.000785214
0.000291278
0.000768353
0.000584602
0.000598549
0.000670439
0.0013878
0.0018793
0.00117058
0.00144405
0.00369622
0.00397138
0.00151289
0.00160228
0.00416905
0.386438
0.371956
0.358033
0.344645
0.331769
0.31938
0.307455
0.295973
0.284914
0.274257
0.263985
0.254079
0.244521
0.235296
0.226388
0.217784
0.209471
0.201436
0.193669
0.186161
0.178902
0.171886
0.165106
0.158555
0.15223
0.146123
0.140232
0.134551
0.129077
0.123803
0.118726
0.113841
0.109143
0.104626
0.100287
0.0961182
0.0921157
0.0882737
0.0845868
0.0810495
0.0776565
0.0744022
0.0712814
0.0682887
0.065419
0.0626672
0.0600282
0.0574971
0.0550691
0.0527394
0.0505036
0.0483571
0.0462958
0.0443154
0.0424123
0.0405824
0.0388226
0.037129
0.0354991
0.0339292
0.0324176
0.0309607
0.0295573
0.028204
0.0269003
0.0256426
0.0244314
0.0232624
0.0221375
0.0210512
0.0200069
0.0189978
0.018029
0.0170916
0.0161933
0.0153224
0.0144896
0.0136798
0.0129077
0.0121534
0.0114371
0.0107329
0.0100678
0.00940843
0.0087902
0.00817106
0.00759646
0.00701392
0.00648138
0.00593303
0.00544384
0.0049283
0.00448612
0.00400755
0.00360705
0.00319227
0.00281114
0.00245579
0.00221197
0.00170076
0.00184762
0.00104692
0.00130913
0.00107968
0.000544855
0.000960841
0.000399118
0.000911482
0.000716928
0.000743731
0.000763026
0.00147409
0.00197023
0.00137428
0.00153148
0.00350416
0.00430371
0.00159191
0.00153078
0.00447423
0.384044
0.369572
0.355661
0.342286
0.329425
0.317053
0.305149
0.293692
0.282661
0.272039
0.261805
0.251943
0.242436
0.233267
0.224421
0.215885
0.207644
0.199686
0.191999
0.184573
0.177399
0.170468
0.163772
0.157305
0.151059
0.14503
0.139212
0.1336
0.128189
0.122975
0.117953
0.113118
0.108465
0.10399
0.0996876
0.095553
0.0915811