/*--------------------------------*- C++ -*----------------------------------*\
| =========                 |                                                 |
| \\      /  F ield         | OpenFOAM: The Open Source CFD Toolbox           |
|  \\    /   O peration     | Version:  2412                                  |
|   \\  /    A nd           | Website:  www.openfoam.com                      |
|    \\/     M anipulation  |                                                 |
\*---------------------------------------------------------------------------*/
FoamFile
{
    version     2.0;
    format      ascii;
    arch        "LSB;label=32;scalar=64";
    class       volScalarField;
    location    "1.005";
    object      Co;
}
// * * * * * * * * * * * * * * * * * * * * * * * * * * * * * * * * * * * * * //

dimensions      [0 0 0 0 0 0 0];

internalField   nonuniform List<scalar> 
12600
(
0.31478
0.17667
0.100052
0.0629538
0.0449785
0.0350573
0.0286577
0.0240761
0.0206016
0.0178654
0.0156505
0.0138202
0.0122831
0.0109752
0.00985054
0.00887465
0.00802149
0.00727079
0.00660657
0.00601602
0.00548873
0.00501616
0.00459123
0.004208
0.00386146
0.00354733
0.00326199
0.00300226
0.00276544
0.00254915
0.00235131
0.0021701
0.0020039
0.0018513
0.00171104
0.00158198
0.00146311
0.00135355
0.00125247
0.00115915
0.00107294
0.00099324
0.000919511
0.000851267
0.000788068
0.000729507
0.000675222
0.000624874
0.000578163
0.000534801
0.000494542
0.000457142
0.000422397
0.000390095
0.000360072
0.000332143
0.000306173
0.000282002
0.00025952
0.000238584
0.000219109
0.000200966
0.000184088
0.00016836
0.000153731
0.000140095
0.000127417
0.0001156
0.000104618
9.43845e-05
8.48824e-05
7.60336e-05
6.78265e-05
6.01939e-05
5.31256e-05
4.65674e-05
4.05053e-05
3.49028e-05
2.97339e-05
2.49871e-05
2.06175e-05
1.66366e-05
1.29986e-05
9.68089e-06
6.75585e-06
3.95555e-06
2.53966e-06
2.11519e-06
4.33847e-06
6.02547e-06
5.89675e-06
9.20097e-06
8.6972e-06
1.1378e-05
1.07427e-05
9.87912e-06
1.51381e-05
1.42805e-05
1.58667e-05
1.49561e-05
1.26512e-05
1.62285e-05
1.52793e-05
2.33269e-05
2.19438e-05
1.15397e-05
2.46865e-05
2.73798e-05
3.63605e-05
3.04461e-05
1.21459e-05
4.30487e-05
4.21469e-05
1.39249e-05
3.23563e-05
3.3097e-05
2.61258e-06
2.85213e-06
6.66116e-06
9.71876e-06
0.477887
0.376503
0.276392
0.202502
0.15316
0.12056
0.0982404
0.0821386
0.069968
0.0604324
0.0527551
0.0464421
0.0411636
0.0366904
0.0328575
0.0295427
0.0266536
0.0241185
0.0218813
0.0198968
0.0181289
0.0165478
0.0151287
0.0138512
0.012698
0.0116543
0.0107076
0.00984719
0.00906368
0.00834899
0.00769606
0.00709869
0.00655143
0.00604946
0.00558851
0.00516479
0.0047749
0.00441581
0.00408482
0.00377948
0.0034976
0.00323719
0.00299647
0.0027738
0.00256772
0.00237688
0.00220008
0.00203619
0.00188422
0.00174321
0.00161237
0.00149086
0.00137804
0.00127319
0.00117577
0.00108518
0.00100098
0.000922633
0.000849785
0.000781961
0.000718887
0.000660134
0.000605494
0.000554576
0.000507226
0.00046309
0.000422056
0.000383803
0.000348254
0.000315119
0.000284346
0.000255676
0.000229076
0.000204322
0.000181382
0.00016008
0.000140365
0.000122131
0.000105266
8.97825e-05
7.54488e-05
6.24327e-05
5.04115e-05
3.95044e-05
2.98154e-05
2.0389e-05
1.34654e-05
5.55462e-06
1.14046e-05
1.5205e-05
1.54481e-05
2.72355e-05
2.36368e-05
3.59406e-05
3.21234e-05
3.19622e-05
4.62322e-05
4.59886e-05
5.48028e-05
4.83672e-05
4.37421e-05
4.77133e-05
5.22189e-05
8.48572e-05
7.70722e-05
4.49607e-05
7.81617e-05
9.50003e-05
0.000135357
0.000104383
4.05578e-05
0.00015388
0.000155958
6.44954e-05
0.000108166
0.000125533
1.16682e-05
1.15578e-05
2.43679e-05
3.13564e-05
0.512392
0.468559
0.397259
0.325438
0.264527
0.216475
0.179598
0.151281
0.129202
0.111643
0.0974064
0.0856637
0.0758352
0.0675068
0.0603755
0.0542148
0.048852
0.0441528
0.0400116
0.0363436
0.0330805
0.0301661
0.027554
0.0252055
0.0230882
0.0211743
0.0194403
0.017866
0.0164341
0.0151292
0.0139383
0.0128497
0.0118534
0.0109403
0.0101026
0.00933311
0.00862562
0.00797451
0.00737478
0.0068219
0.00631184
0.00584092
0.00540587
0.00500368
0.00463168
0.00428736
0.00396855
0.00367315
0.00339938
0.00314548
0.00290997
0.00269137
0.00248847
0.00229998
0.00212492
0.00196218
0.00181097
0.00167031
0.00153956
0.00141786
0.00130471
0.00119934
0.00110135
0.00101006
0.000925171
0.000846049
0.000772493
0.000703918
0.000640189
0.000580776
0.00052559
0.000474159
0.000426423
0.000381977
0.000340761
0.000302463
0.000266973
0.000234135
0.000203673
0.000175748
0.000149702
0.000126217
0.000104172
8.44342e-05
6.6616e-05
4.90997e-05
3.70405e-05
1.83849e-05
2.38742e-05
2.1998e-05
2.36812e-05
4.67626e-05
3.57203e-05
6.52289e-05
5.54213e-05
5.95712e-05
7.99925e-05
8.47176e-05
0.000107711
9.07975e-05
8.60475e-05
7.82899e-05
0.000101441
0.000174383
0.000157004
9.78094e-05
0.000139722
0.000193276
0.000288
0.000209682
7.3681e-05
0.000311646
0.000331265
0.000157363
0.000201466
0.000271068
2.9338e-05
2.53043e-05
4.95881e-05
5.72544e-05
0.504335
0.491053
0.453129
0.402729
0.350328
0.301638
0.259118
0.223205
0.193304
0.168473
0.147767
0.130375
0.115644
0.103062
0.0922297
0.0828381
0.0746427
0.0674502
0.0611053
0.0554825
0.050479
0.0460104
0.042006
0.0384069
0.0351632
0.0322327
0.0295791
0.0271712
0.0249822
0.0229888
0.0211705
0.0195096
0.0179903
0.0165988
0.0153228
0.0141515
0.0130753
0.0120853
0.011174
0.0103343
0.0095601
0.00884566
0.00818598
0.00757642
0.00701287
0.00649151
0.00600898
0.0055621
0.0051481
0.0047643
0.00440845
0.00407827
0.0037719
0.0034874
0.00322326
0.00297779
0.00274976
0.00253771
0.00234065
0.00215727
0.00198681
0.0018281
0.00168054
0.00154307
0.00141526
0.00129615
0.00118541
0.00108218
0.000986231
0.000896777
0.000813663
0.000736193
0.000664255
0.000597251
0.000535076
0.000477268
0.000423638
0.000373994
0.000327825
0.000285552
0.000245855
0.000210304
0.000176406
0.000146495
0.000118952
9.18731e-05
7.39835e-05
4.31414e-05
4.33016e-05
2.50966e-05
3.03475e-05
6.63229e-05
4.34096e-05
9.77591e-05
7.91844e-05
9.25489e-05
0.000113785
0.000127326
0.000172058
0.000140816
0.000139251
0.000105501
0.000158396
0.000285846
0.000258035
0.000170935
0.000202391
0.000313652
0.000484939
0.000343532
0.000104093
0.000499284
0.000558058
0.000296022
0.000299506
0.000462785
5.9069e-05
4.29166e-05
8.01089e-05
8.50518e-05
0.488144
0.483329
0.465118
0.435217
0.398576
0.359498
0.321078
0.285218
0.252838
0.224183
0.199107
0.177275
0.158286
0.141748
0.127302
0.11464
0.1035
0.0936609
0.0849395
0.0771818
0.0702588
0.0640619
0.0584995
0.0534935
0.0489775
0.0448945
0.0411955
0.0378379
0.0347849
0.0320044
0.0294682
0.0271516
0.0250329
0.0230927
0.021314
0.0196817
0.0181821
0.0168033
0.0155343
0.0143655
0.0132881
0.0122943
0.011377
0.0105296
0.00974649
0.00902223
0.00835214
0.00773175
0.00715719
0.00662473
0.00613118
0.00567337
0.00524871
0.00485447
0.00448854
0.00414856
0.00383282
0.00353927
0.00326653
0.00301278
0.00277694
0.0025574
0.0023533
0.0021632
0.00198646
0.00182176
0.00166864
0.0015259
0.00139321
0.00126951
0.00115453
0.00104736
0.000947787
0.000855019
0.000768879
0.00068875
0.000614334
0.000545417
0.000481184
0.000422417
0.000366921
0.000317484
0.000269721
0.000228105
0.000189042
0.000150844
0.000126092
8.06058e-05
7.96611e-05
3.36845e-05
3.4993e-05
8.44298e-05
4.50657e-05
0.000132024
0.00010159
0.000130214
0.00014549
0.000170878
0.00024528
0.000196553
0.000202488
0.000127669
0.000219049
0.000413343
0.000375936
0.000264047
0.000260709
0.000448028
0.00071598
0.000501632
0.000125466
0.000700971
0.000826273
0.000481355
0.000391139
0.000692639
0.000103034
6.30207e-05
0.000113681
0.000112071
0.473944
0.468257
0.457314
0.439403
0.415639
0.387899
0.358074
0.327799
0.298302
0.270391
0.244529
0.220911
0.199553
0.180357
0.163165
0.147792
0.134049
0.121757
0.110749
0.100876
0.0920054
0.0840221
0.0768239
0.070322
0.0644387
0.0591062
0.0542653
0.0498638
0.0458561
0.0422019
0.0388657
0.0358162
0.0330254
0.0304686
0.0281238
0.0259714
0.0239937
0.0221749
0.020501
0.0189592
0.0175381
0.0162272
0.0150173
0.0138998
0.0128671
0.0119123
0.0110289
0.0102113
0.00945415
0.00875262
0.00810247
0.00749954
0.00694034
0.00642132
0.00593964
0.00549222
0.00507676
0.00469056
0.00433178
0.00399806
0.00368791
0.00339924
0.00313089
0.00288098
0.00264862
0.00243212
0.00223082
0.00204319
0.00186873
0.00170608
0.00155487
0.00141389
0.00128286
0.00116075
0.00104729
0.000941699
0.000843543
0.000752593
0.00066767
0.000589999
0.000516326
0.000450937
0.000387097
0.000332031
0.000279438
0.00022845
0.00019546
0.000132993
0.000133863
6.49778e-05
5.26206e-05
9.93679e-05
3.87953e-05
0.000166399
0.000120611
0.000171544
0.000173237
0.000212428
0.000324585
0.000255836
0.000274488
0.000143574
0.000279706
0.000551073
0.000506193
0.000375852
0.000310554
0.000593531
0.00097468
0.000678589
0.000132499
0.000902667
0.00112604
0.00071109
0.000467451
0.000951404
0.000161527
8.41398e-05
0.000147999
0.000135367
0.462648
0.454311
0.44446
0.431383
0.414805
0.395167
0.373201
0.349752
0.325639
0.301562
0.278076
0.255584
0.234355
0.214543
0.19621
0.179354
0.163927
0.149853
0.137039
0.125386
0.114795
0.105169
0.0964185
0.0884595
0.0812155
0.0746172
0.0686016
0.0631125
0.0580991
0.0535159
0.0493223
0.0454816
0.041961
0.0387311
0.0357656
0.0330404
0.0305344
0.0282281
0.0261042
0.0241469
0.0223421
0.0206766
0.019139
0.0177186
0.0164057
0.0151916
0.0140683
0.0130285
0.0120656
0.0111734
0.0103466
0.00957982
0.0088687
0.00820869
0.0075962
0.00702731
0.00649909
0.00600811
0.00555201
0.00512779
0.00473356
0.00436665
0.00402556
0.00370794
0.0034126
0.00313744
0.00288156
0.00264306
0.00242126
0.00221446
0.00202214
0.00184282
0.00167608
0.00152064
0.00137613
0.00124158
0.00111639
0.00100033
0.000891794
0.000792517
0.000698027
0.000614352
0.000531996
0.000461492
0.000393129
0.000327535
0.000284566
0.000202891
0.000204936
0.000112505
9.11628e-05
0.000122595
2.71231e-05
0.000199099
0.000134033
0.000215201
0.000195371
0.000249012
0.00040697
0.000316219
0.000353589
0.000158027
0.000336988
0.000693482
0.000644187
0.00050403
0.000349188
0.000746394
0.00125294
0.000868382
0.000147397
0.00109289
0.00144798
0.000979234
0.000522449
0.00122871
0.000233811
0.000105664
0.000180679
0.000151732
0.453311
0.442911
0.432307
0.420447
0.406866
0.39152
0.37459
0.356382
0.33727
0.317638
0.297846
0.278217
0.259023
0.240482
0.222757
0.205959
0.190159
0.175384
0.161638
0.148896
0.137122
0.126266
0.116273
0.107085
0.0986445
0.0908936
0.0837776
0.0772445
0.0712461
0.065737
0.0606759
0.0560244
0.0517475
0.0478133
0.0441925
0.0408585
0.037787
0.0349558
0.032345
0.029936
0.0277123
0.0256585
0.0237608
0.0220065
0.020384
0.0188828
0.0174933
0.0162065
0.0150145
0.0139097
0.0128856
0.0119356
0.0110545
0.0102366
0.00947741
0.00877224
0.00811739
0.0075087
0.00694318
0.00641718
0.00592831
0.00547331
0.00505029
0.00465636
0.00429003
0.00394871
0.00363125
0.00333533
0.00306006
0.00280339
0.00256462
0.00234194
0.00213478
0.00194162
0.00176192
0.00159453
0.00143866
0.00129406
0.00115866
0.00103476
0.000916535
0.000811944
0.000708383
0.000620189
0.000533561
0.000451368
0.000396305
0.000293282
0.000295297
0.000176676
0.00015211
0.0001581
1.60503e-05
0.000228139
0.00013947
0.000259564
0.000210414
0.000277628
0.000489264
0.00037501
0.000437727
0.000180294
0.000387804
0.000835436
0.000785371
0.00064527
0.000375247
0.000898652
0.00153838
0.00106491
0.000208529
0.00126345
0.00178329
0.00127577
0.000553479
0.00151312
0.000315278
0.000125451
0.000209249
0.000157701
0.445246
0.433523
0.422009
0.410121
0.397496
0.384
0.369646
0.354529
0.338793
0.322605
0.306135
0.289553
0.273022
0.256694
0.240705
0.225174
0.210198
0.195855
0.182202
0.169274
0.157091
0.145655
0.134958
0.12498
0.115694
0.107069
0.09907
0.0916597
0.0848012
0.0784578
0.0725935
0.0671741
0.0621666
0.0575402
0.0532659
0.0493166
0.0456671
0.0422942
0.0391761
0.036293
0.0336265
0.0311595
0.0288766
0.0267633
0.0248065
0.022994
0.0213147
0.0197583
0.0183154
0.0169771
0.0157359
0.0145839
0.0135148
0.012522
0.0116002
0.0107437
0.00994798
0.00920818
0.00852068
0.00788107
0.00728647
0.00673297
0.00621825
0.00573886
0.00529293
0.00487741
0.00449081
0.00413041
0.00379504
0.00348228
0.00319121
0.00291969
0.00266698
0.00243127
0.00221184
0.00200735
0.00181677
0.00163986
0.00147401
0.00132215
0.00117695
0.0010485
0.000920778
0.000812353
0.000704695
0.000603707
0.000534049
0.000407582
0.000407725
0.000260352
0.000231431
0.000230832
5.09442e-05
0.000270096
0.000134385
0.000302764
0.000216992
0.000295212
0.000568196
0.000429295
0.000524426
0.000207405
0.000429314
0.000972391
0.000925392
0.000795342
0.000388592
0.00104488
0.00182132
0.00126248
0.000309059
0.00140972
0.00212375
0.00158691
0.000561105
0.00179242
0.000397456
0.000140088
0.000231115
0.000149579
0.438116
0.425543
0.413329
0.401141
0.388725
0.375944
0.362765
0.349221
0.335376
0.32131
0.307104
0.292833
0.278573
0.264394
0.250368
0.236562
0.223042
0.209869
0.1971
0.184783
0.172959
0.16166
0.150907
0.140712
0.13108
0.122007
0.113484
0.105496
0.0980233
0.0910452
0.084538
0.0784771
0.0728374
0.0675937
0.0627213
0.0581963
0.0539955
0.0500968
0.0464792
0.0431229
0.0400094
0.037121
0.0344415
0.0319557
0.0296493
0.027509
0.0255229
0.0236793
0.021968
0.0203789
0.0189034
0.0175326
0.0162593
0.015076
0.0139765
0.0129541
0.0120038
0.0111197
0.0102977
0.00953262
0.00882104
0.00815841
0.00754194
0.00696759
0.00643314
0.00593496
0.00547129
0.0050389
0.00463639
0.0042609
0.00391128
0.00358505
0.00328124
0.00299775
0.00273367
0.00248744
0.00225776
0.00204442
0.00184419
0.00166069
0.00148498
0.00132942
0.00117428
0.00104278
0.000911046
0.000788835
0.00070169
0.000549689
0.000545452
0.000366931
0.000332324
0.000322742
0.000112143
0.000324615
0.000119705
0.000346054
0.000213717
0.00029859
0.000640459
0.000475959
0.000610829
0.00023165
0.000458916
0.00110051
0.00106013
0.000949268
0.00039001
0.00118022
0.00209335
0.00145616
0.000426584
0.0015304
0.00246152
0.00189604
0.000548349
0.00205412
0.000471849
0.000147634
0.00024354
0.000123531
0.431739
0.418595
0.405882
0.393394
0.380958
0.368452
0.35582
0.343063
0.330215
0.317324
0.304444
0.291618
0.278886
0.26628
0.253829
0.241559
0.229494
0.217659
0.206083
0.194793
0.183818
0.173186
0.162922
0.153048
0.143583
0.13454
0.125927
0.117748
0.110003
0.102686
0.095789
0.0893014
0.0832093
0.0774973
0.072149
0.067147
0.0624737
0.058111
0.0540415
0.0502476
0.0467126
0.0434201
0.0403547
0.0375012
0.0348458
0.032375
0.0300764
0.0279378
0.0259486
0.024098
0.0223766
0.0207749
0.0192851
0.0178986
0.0166088
0.0154082
0.0142911
0.0132509
0.0122829
0.0113812
0.0105419
0.00975988
0.00903183
0.00835314
0.00772121
0.00713187
0.00658303
0.00607099
0.00559405
0.00514894
0.00473425
0.00434711
0.00398636
0.00364956
0.00333558
0.00304265
0.00276916
0.00251494
0.0022761
0.00205697
0.0018469
0.00166066
0.00147457
0.00131686
0.0011577
0.00101159
0.000903687
0.000724016
0.000712233
0.000500345
0.000458309
0.000436332
0.000194132
0.000413895
0.000152519
0.000416352
0.000198981
0.000284359
0.000702741
0.000511675
0.000693744
0.000250602
0.000474212
0.00121666
0.00118567
0.00110156
0.000380795
0.00130027
0.00234754
0.00164189
0.000555059
0.00162655
0.00278905
0.00218551
0.000519386
0.00228618
0.000531666
0.000147729
0.00024361
7.58774e-05
0.425986
0.412444
0.399376
0.386643
0.374127
0.361726
0.349376
0.337054
0.324768
0.312546
0.300426
0.288443
0.276628
0.265006
0.253593
0.242401
0.231436
0.2207
0.210198
0.199934
0.189914
0.180146
0.170643
0.161416
0.152479
0.143844
0.135523
0.127528
0.119865
0.112541
0.105559
0.0989182
0.0926171
0.0866506
0.081012
0.0756926
0.0706824
0.0659702
0.0615441
0.0573912
0.0534988
0.0498536
0.0464428
0.0432533
0.0402726
0.0374884
0.0348889
0.0324625
0.0301988
0.028087
0.0261177
0.0242812
0.0225692
0.0209729
0.0194851
0.018098
0.0168053
0.0155999
0.0144768
0.0134293
0.0124532
0.0115427
0.0106943
0.00990265
0.00916489
0.00847631
0.00783453
0.00723536
0.00667683
0.00615522
0.00566888
0.00521459
0.00479091
0.0043951
0.00402578
0.003681
0.00335875
0.00305898
0.002777
0.00251801
0.00226946
0.00204871
0.00182787
0.00164051
0.00145033
0.00127739
0.00114509
0.000935521
0.000912403
0.000665073
0.000613364
0.000575011
0.00030098
0.000537596
0.000207642
0.000491262
0.000170498
0.000248576
0.000751693
0.000532879
0.000769725
0.000261589
0.000472967
0.00131833
0.00129815
0.00124653
0.000362258
0.00140109
0.00257837
0.00181634
0.000686538
0.00170027
0.00309902
0.00243881
0.000478027
0.00247806
0.000575968
0.000146432
0.000230859
4.88462e-05
0.420764
0.40694
0.393615
0.380693
0.368087
0.355718
0.343524
0.331469
0.319541
0.307747
0.296107
0.284648
0.273394
0.262369
0.251589
0.241068
0.230811
0.220817
0.211082
0.201601
0.192366
0.183372
0.174614
0.16609
0.157801
0.149749
0.141936
0.13437
0.127055
0.119997
0.113203
0.106676
0.10042
0.0944377
0.0887284
0.0832912
0.0781234
0.0732207
0.0685776
0.0641874
0.0600424
0.0561341
0.0524537
0.0489916
0.0457383
0.0426836
0.0398181
0.0371317
0.0346151
0.0322584
0.0300531
0.0279898
0.0260607
0.0242569
0.0225715
0.0209963
0.0195251
0.0181506
0.0168673
0.0156685
0.0145495
0.0135042
0.0125287
0.0116173
0.0107668
0.00997213
0.00923063
0.00853763
0.00789096
0.00728648
0.0067223
0.00619484
0.00570241
0.00524202
0.00481195
0.00441013
0.00403412
0.00368402
0.00335428
0.00305105
0.0027597
0.00250043
0.00224081
0.00202016
0.0017951
0.00159216
0.00143152
0.0011897
0.00115091
0.000866153
0.000802006
0.000742855
0.000437167
0.00068391
0.000273085
0.000612273
0.000188529
0.000216292
0.000792873
0.000535706
0.000835184
0.000261787
0.000453013
0.00140333
0.00139366
0.00137856
0.00033523
0.0014793
0.00278134
0.00197655
0.000812041
0.00175316
0.00338435
0.00264269
0.000426428
0.00262155
0.000599973
0.000154951
0.000237613
0.00010131
0.415999
0.40197
0.38846
0.375394
0.362708
0.350339
0.338232
0.326349
0.314666
0.303173
0.291875
0.280784
0.269916
0.25929
0.24892
0.238822
0.229004
0.21947
0.21022
0.201248
0.192546
0.184105
0.175914
0.167963
0.160242
0.152743
0.145461
0.138391
0.131531
0.12488
0.11844
0.112211
0.106196
0.100398
0.0948176
0.0894575
0.0843186
0.0794009
0.0747037
0.0702252
0.0659627
0.0619123
0.0580698
0.0544296
0.050986
0.0477323
0.0446618
0.0417672
0.0390412
0.0364761
0.0340647
0.0317989
0.029672
0.027676
0.0258045
0.0240497
0.0224059
0.0208658
0.0194242
0.0180742
0.0168113
0.015629
0.0145234
0.0134886
0.0125213
0.0116161
0.01077
0.00997817
0.00923821
0.00854563
0.00789837
0.00729253
0.00672618
0.00619611
0.00570028
0.00523657
0.00480199
0.00439696
0.00401487
0.00366307
0.00332459
0.00302272
0.00272021
0.00246248
0.00219855
0.00196226
0.00176912
0.00149254
0.00143333
0.00110916
0.00102934
0.000944594
0.000607676
0.000856664
0.000351459
0.000768822
0.000276173
0.000249768
0.000856849
0.000517175
0.000887747
0.000248346
0.000412074
0.00146944
0.00146811
0.00149236
0.000299646
0.00153198
0.00295237
0.00211956
0.000922699
0.0017852
0.00363831
0.00278867
0.000364377
0.00271154
0.000604393
0.000162631
0.000250179
0.000235885
0.411628
0.397452
0.383807
0.370633
0.357881
0.3455
0.333443
0.321673
0.310161
0.298888
0.287848
0.277038
0.266467
0.256144
0.246078
0.236281
0.226764
0.217532
0.208589
0.199935
0.191566
0.183475
0.175653
0.168088
0.16077
0.153687
0.146828
0.140182
0.13374
0.127494
0.121439
0.115571
0.109885
0.10438
0.0990555
0.0939108
0.0889463
0.0841624
0.0795595
0.0751378
0.0708971
0.0668366
0.0629551
0.0592504
0.0557202
0.0523611
0.0491698
0.0461415
0.043272
0.0405558
0.0379881
0.0355627
0.0332746
0.0311171
0.0290853
0.0271723
0.0253734
0.0236817
0.0220928
0.0206
0.0191993
0.0178843
0.0166514
0.0154946
0.0144107
0.013394
0.0124419
0.011549
0.0107131
0.00992933
0.00919555
0.00850767
0.00786353
0.00725983
0.00669414
0.00616446
0.00566712
0.00520311
0.00476447
0.00436013
0.00397037
0.00362206
0.00327261
0.00297408
0.0026673
0.00239421
0.00216437
0.00185036
0.00176577
0.00140011
0.00130104
0.00118558
0.000818016
0.00106034
0.000445891
0.00094896
0.000392945
0.00029539
0.00093038
0.000534989
0.000970607
0.000218543
0.000347353
0.00151398
0.0015171
0.00158311
0.000254301
0.00155651
0.0030871
0.00224209
0.00101088
0.00179409
0.00385456
0.0028735
0.000289256
0.00274629
0.000592736
0.000172354
0.000257743
0.000403274
0.407601
0.393319
0.379575
0.366324
0.353521
0.341126
0.329098
0.317403
0.306012
0.294902
0.284058
0.273471
0.263138
0.253061
0.243243
0.233691
0.22441
0.215408
0.206688
0.198253
0.190103
0.182234
0.174642
0.167318
0.160254
0.153439
0.146862
0.140512
0.134378
0.128447
0.122711
0.117161
0.111787
0.106585
0.101547
0.0966691
0.0919488
0.0873832
0.0829708
0.0787101
0.0746007
0.0706417
0.0668329
0.0631733
0.0596623
0.0562985
0.0530808
0.0500068
0.0470746
0.0442811
0.0416237
0.0390984
0.0367021
0.0344301
0.032279
0.0302435
0.0283202
0.0265033
0.0247894
0.0231727
0.0216499
0.0202151
0.0188653
0.0175946
0.0164004
0.0152771
0.0142222
0.0132304
0.0122996
0.0114249
0.010604
0.00983302
0.00910944
0.0084301
0.00779213
0.00719387
0.00663082
0.00610484
0.00560635
0.00514628
0.00470171
0.00430363
0.0039036
0.00356087
0.00320753
0.00289428
0.00262378
0.00226951
0.00215468
0.00174531
0.0016233
0.00147169
0.00107417
0.00130016
0.000560262
0.00115748
0.000542508
0.000355721
0.00107721
0.00061021
0.00104828
0.000172111
0.000255046
0.00153329
0.00153604
0.00164649
0.000207185
0.0015502
0.0031803
0.00234047
0.00107114
0.00177524
0.00402708
0.00289888
0.000196358
0.00272711
0.000570126
0.000187589
0.000260892
0.000602944
0.403875
0.389517
0.375704
0.362396
0.349558
0.337151
0.325141
0.313499
0.302194
0.291205
0.280512
0.270099
0.259959
0.250087
0.240479
0.231136
0.222059
0.213253
0.204719
0.196461
0.188479
0.180772
0.173338
0.166172
0.159269
0.15262
0.146218
0.140053
0.134114
0.128391
0.122874
0.117552
0.112415
0.107453
0.102658
0.0980229
0.0935397
0.0892028
0.0850073
0.0809492
0.0770251
0.0732324
0.0695692
0.0660336
0.0626247
0.0593411
0.056182
0.053146
0.0502324
0.0474393
0.0447658
0.0422094
0.0397689
0.037441
0.0352241
0.0331145
0.0311101
0.0292067
0.0274021
0.0256916
0.0240729
0.022541
0.0210938
0.019726
0.0184356
0.0172174
0.0160695
0.0149868
0.0139673
0.0130066
0.0121024
0.011251
0.0104496
0.00969563
0.00898557
0.00831848
0.00768877
0.0070997
0.00653957
0.00602202
0.00552023
0.00507013
0.00461674
0.0042271
0.00382421
0.00346774
0.00315326
0.00275589
0.00260648
0.00215103
0.00200257
0.00180919
0.00138248
0.00158208
0.000750985
0.00139982
0.000729355
0.000434404
0.0012478
0.0006956
0.00118174
0.000237837
0.000243343
0.00155486
0.00154226
0.00169959
0.00016508
0.00150962
0.00322555
0.00241076
0.00110076
0.00172197
0.00415008
0.00287113
9.08058e-05
0.00266852
0.000541998
0.000212038
0.000261881
0.000832237
0.400415
0.386004
0.372143
0.358797
0.345933
0.333519
0.321524
0.30992
0.298681
0.287783
0.277205
0.26693
0.256946
0.247241
0.23781
0.228647
0.21975
0.211119
0.202752
0.194652
0.186817
0.179248
0.171944
0.1649
0.158114
0.15158
0.145292
0.139243
0.133425
0.127829
0.122447
0.117268
0.112284
0.107484
0.102859
0.0984011
0.0941008
0.0899502
0.0859423
0.0820702
0.0783284
0.0747114
0.0712153
0.0678359
0.0645705
0.0614162
0.0583712
0.0554332
0.0526013
0.0498735
0.0472492
0.0447264
0.0423047
0.0399816
0.0377569
0.0356276
0.0335933
0.0316505
0.0297987
0.0280338
0.0263552
0.0247585
0.0232427
0.0218034
0.0204394
0.0191462
0.0179225
0.0167638
0.0156685
0.0146328
0.0136544
0.0127301
0.0118573
0.0110338
0.0102555
0.00952277
0.00882846
0.00817793
0.00755676
0.00698217
0.00642265
0.00592002
0.00541198
0.00497396
0.00451983
0.00411777
0.00375726
0.00331406
0.00312685
0.0026229
0.00244509
0.0022043
0.00174925
0.00191256
0.0010362
0.00168237
0.000958406
0.000581493
0.00144582
0.00079458
0.00135898
0.000343863
0.000284349
0.00159363
0.00155003
0.00175806
0.000115285
0.00144379
0.00322881
0.00249422
0.00114251
0.00162595
0.00421801
0.00285802
0.000110146
0.00265582
0.000512989
0.000255631
0.00031502
0.00108667
0.397189
0.382744
0.368851
0.35548
0.342602
0.330186
0.318204
0.306631
0.295442
0.284614
0.274126
0.26396
0.254101
0.244534
0.235251
0.226243
0.217503
0.209026
0.200812
0.192856
0.185159
0.177718
0.170531
0.163597
0.156912
0.150472
0.144274
0.13831
0.132575
0.127062
0.121764
0.116674
0.111782
0.10708
0.102561
0.0982147
0.094034
0.09001
0.0861351
0.0824015
0.0788021
0.0753302
0.0719798
0.068745
0.0656214
0.0626039
0.0596894
0.0568738
0.054155
0.0515297
0.0489967
0.0465531
0.0441985
0.0419302
0.0397481
0.0376495
0.0356346
0.0337004
0.0318472
0.0300718
0.0283743
0.0267512
0.0252025
0.0237244
0.0223169
0.0209759
0.019701
0.0184884
0.017337
0.0162437
0.0152065
0.0142232
0.0132905
0.0124078
0.0115699
0.0107791
0.0100262
0.00931965
0.00864137
0.00801335
0.00739836
0.00684519
0.00628361
0.0057976
0.00529269
0.00484381
0.00443732
0.00394598
0.00371962
0.00316501
0.00295603
0.00266266
0.00218022
0.00229842
0.00138423
0.00201228
0.00123472
0.000833631
0.00167575
0.000911899
0.00155729
0.000469136
0.000348497
0.00171349
0.00162416
0.00180763
9.74719e-05
0.00143686
0.00322619
0.0025806
0.00119564
0.00147675
0.00422505
0.00284298
0.000224642
0.00262828
0.000486278
0.000348535
0.000455605
0.00136038
0.394172
0.379706
0.365795
0.35241
0.339525
0.327112
0.315144
0.303598
0.29245
0.281678
0.271262
0.261183
0.251424
0.241971
0.232811
0.223933
0.215328
0.206989
0.19891
0.191087
0.183517
0.176197
0.169123
0.162293
0.155704
0.149353
0.143235
0.137345
0.13168
0.126232
0.120996
0.115966
0.111134
0.106495
0.102039
0.0977606
0.0936516
0.0897045
0.0859121
0.0822666
0.0787613
0.0753888
0.0721429
0.0690166
0.0660046
0.0631007
0.0603003
0.0575981
0.0549907
0.0524733
0.0500435
0.0476972
0.0454331
0.0432475
0.0411398
0.0391066
0.0371481
0.035261
0.0334457
0.0316991
0.0300217
0.0284103
0.0268655
0.0253842
0.0239665
0.0226094
0.0213129
0.020074
0.0188919
0.0177644
0.0166897
0.0156666
0.0146915
0.0137654
0.0128819
0.0120457
0.011245
0.0104923
0.00976508
0.0090912
0.00842672
0.00782834
0.00721768
0.00668666
0.00613463
0.00563936
0.00519011
0.00464924
0.00438509
0.00377849
0.00353813
0.00318828
0.00267952
0.00274589
0.00179588
0.00239707
0.00156323
0.00116355
0.0019425
0.00105334
0.00178382
0.000620492
0.000449668
0.00187685
0.00173315
0.00196096
0.000249167
0.00149153
0.00318659
0.00265221
0.00134505
0.00148016
0.00427086
0.00280999
0.000417322
0.00259307
0.000463813
0.000485934
0.000642641
0.00164687
0.391341
0.376864
0.362945
0.349556
0.336671
0.324265
0.312312
0.300791
0.289678
0.278952
0.268595
0.258587
0.248911
0.23955
0.230493
0.221725
0.213236
0.205016
0.197058
0.189355
0.181901
0.174693
0.167726
0.160997
0.154501
0.148236
0.142196
0.136379
0.130779
0.125391
0.12021
0.115231
0.110447
0.105853
0.101442
0.0972074
0.0931434
0.0892429
0.0854996
0.0819064
0.0784572
0.075145
0.0719638
0.068907
0.0659691
0.0631434
0.0604252
0.0578084
0.0552888
0.0528608
0.0505211
0.0482645
0.0460887
0.043989
0.041964
0.0400093
0.0381243
0.036305
0.0345515
0.0328601
0.0312311
0.0296613
0.0281509
0.0266972
0.0253003
0.0239578
0.0226693
0.0214331
0.0202478
0.0191128
0.0180252
0.0169861
0.0159902
0.0150413
0.0141306
0.0132666
0.0124337
0.0116496
0.0108862
0.0101784
0.00947487
0.00884047
0.00818951
0.00761956
0.00702839
0.0064894
0.00600487
0.00541467
0.00511769
0.00445958
0.00418967
0.00378201
0.00324796
0.0032597
0.00227396
0.00284368
0.00194805
0.00155619
0.00225132
0.00122566
0.00204633
0.000805259
0.000654624
0.00205971
0.00185855
0.00212142
0.000425127
0.00156115
0.00326103
0.00285206
0.00150783
0.00152165
0.00432424
0.00277298
0.000640953
0.00255858
0.000550145
0.000643912
0.000849067
0.00193945
0.388677
0.374198
0.360278
0.346891
0.334013
0.321617
0.309682
0.298184
0.287102
0.276417
0.26611
0.25616
0.246552
0.237269
0.228297
0.219621
0.211231
0.203114
0.195262
0.187666
0.180318
0.173214
0.166347
0.159713
0.153307
0.147125
0.141163
0.135417
0.129882
0.124553
0.119426
0.114496
0.109756
0.105203
0.10083
0.096631
0.0926007
0.0887331
0.0850222
0.0814619
0.0780467
0.0747702
0.0716271
0.068611
0.0657169
0.0629386
0.0602715
0.0577093
0.0552481
0.0528817
0.0506068
0.0484175
0.0463112
0.0442822
0.0423287
0.0404455
0.0386312
0.0368811
0.0351945
0.0335673
0.0319988
0.0304857
0.0290275
0.0276214
0.0262669
0.024962
0.0237054
0.0224964
0.0213325
0.0202147
0.0191386
0.0181074
0.0171138
0.0161647
0.015248
0.0143767
0.0135307
0.0127335
0.0119507
0.0112248
0.0104972
0.00983965
0.00916209
0.00856246
0.00794536
0.00736784
0.00686069
0.00622381
0.00590305
0.00519716
0.00490178
0.0044394
0.00388083
0.00384115
0.00281746
0.00335685
0.0023916
0.00201652
0.00260748
0.00143644
0.0023533
0.00103132
0.000963008
0.00226287
0.00200536
0.00229963
0.000634873
0.0016459
0.00332604
0.00306324
0.001689
0.00154996
0.00435225
0.00274535
0.000896244
0.00253306
0.000779119
0.0008222
0.00107285
0.00223173
0.386162
0.371688
0.357774
0.344395
0.331527
0.319146
0.307229
0.295754
0.284703
0.274054
0.263789
0.25389
0.24434
0.235122
0.226221
0.217624
0.209317
0.201289
0.193529
0.186027
0.178774
0.171764
0.16499
0.158445
0.152124
0.146023
0.140137
0.134461
0.128991
0.123721
0.118649
0.113767
0.109073
0.10456
0.100223
0.0960577
0.092058
0.0882186
0.0845341
0.080999
0.077608
0.0743555
0.0712365
0.0682452
0.0653771
0.0626263
0.0599886
0.0574582
0.0550313
0.0527021
0.0504672
0.048321
0.0462605
0.0442803
0.0423778
0.0405479
0.0387885
0.0370949
0.0354653
0.0338955
0.032384
0.0309274
0.0295239
0.0281712
0.0268672
0.0256107
0.0243988
0.023232
0.0221058
0.0210231
0.0199769
0.0189733
0.0180017
0.0170727
0.0161701
0.0153118
0.0144722
0.0136813
0.0128982
0.0121719
0.0114386
0.0107729
0.010087
0.0094692
0.00884467
0.00823631
0.00772435
0.00704689
0.00671521
0.00597018
0.00565528
0.00514799
0.00456483
0.00448553
0.00341918
0.00393647
0.00289313
0.00254568
0.00301554
0.00169388
0.00271347
0.0013064
0.00132976
0.00248835
0.00217941
0.00250581
0.000885097
0.00174701
0.00338506
0.00328581
0.00189801
0.00156279
0.00436325
0.0027386
0.00118158
0.00252415
0.00105584
0.00101953
0.00131199
0.00251776
0.383781
0.369318
0.355414
0.342048
0.329194
0.31683
0.304933
0.293483
0.28246
0.271844
0.261618
0.251762
0.242262
0.2331
0.22426
0.21573
0.207495
0.199543
0.191863
0.184443
0.177275
0.170349
0.163659
0.157197
0.150956
0.144932
0.139119
0.133511
0.128105
0.122895
0.117877
0.113045
0.108396
0.103924
0.0996251
0.0954934
0.0915243
0.0877125
0.0840532
0.0805411
0.0771714