/*--------------------------------*- C++ -*----------------------------------*\
| =========                 |                                                 |
| \\      /  F ield         | OpenFOAM: The Open Source CFD Toolbox           |
|  \\    /   O peration     | Version:  2412                                  |
|   \\  /    A nd           | Website:  www.openfoam.com                      |
|    \\/     M anipulation  |                                                 |
\*---------------------------------------------------------------------------*/
FoamFile
{
    version     2.0;
    format      ascii;
    arch        "LSB;label=32;scalar=64";
    class       volVectorField;
    location    "0.965";
    object      ddtCorrDdt0(U);
}
// * * * * * * * * * * * * * * * * * * * * * * * * * * * * * * * * * * * * * //

dimensions      [0 1 -2 0 0 0 0];

internalField   nonuniform List<vector> 
12600
(
(0.127851 -3.67939e-21 -0.0629605)
(-0.034324 -6.51364e-21 -0.00111181)
(0.025873 -3.68429e-21 0.00666031)
(0.0257869 0 0.0041839)
(0.0236888 -2.50315e-21 0.00382861)
(0.0276772 -2.17111e-21 0.00314167)
(0.0304485 0 0.00275556)
(0.0324892 0 0.00208143)
(0.0349828 3.69731e-21 0.00115492)
(0.0383479 0 3.68294e-05)
(0.0422967 -5.48937e-22 -0.00117299)
(0.046424 -8.54188e-23 -0.00242044)
(0.0502438 -2.94379e-22 -0.00363486)
(0.0531395 0 -0.0046909)
(0.0544629 -8.15035e-22 -0.00546042)
(0.0537386 0 -0.00589054)
(0.0508173 5.40462e-21 -0.00602344)
(0.0458697 0 -0.00594516)
(0.0392517 -3.10549e-21 -0.00571706)
(0.0313603 -3.28684e-21 -0.00534687)
(0.022563 3.14928e-21 -0.00480955)
(0.0131981 1.13523e-22 -0.0040866)
(0.0035931 0 -0.00318825)
(-0.0059253 -3.55621e-21 -0.00215032)
(-0.0150241 0 -0.00101822)
(-0.0233493 0 0.000163423)
(-0.0305209 4.12349e-22 0.00135274)
(-0.0361422 0 0.002505)
(-0.0398386 -3.90454e-23 0.0035704)
(-0.0412933 -3.98812e-21 0.00449101)
(-0.0402944 -4.71527e-21 0.00520667)
(-0.0367435 -5.09707e-21 0.00565415)
(-0.0306868 5.06167e-21 0.00577819)
(-0.0222956 9.13042e-21 0.00552951)
(-0.0119099 7.15945e-21 0.00488313)
(9.46616e-06 -4.37091e-21 0.00383018)
(0.012825 0 0.0024016)
(0.0258268 -3.90432e-21 0.000647046)
(0.0381522 0 -0.00133155)
(0.0489755 1.36411e-20 -0.00342034)
(0.0573909 0 -0.00544834)
(0.0627343 -2.84196e-22 -0.00726174)
(0.0643828 0 -0.00866424)
(0.0622182 -4.42341e-22 -0.00953646)
(0.0562215 6.00819e-20 -0.0097425)
(0.0470599 -6.00579e-20 -0.00929182)
(0.0353288 5.92071e-20 -0.0081772)
(0.0223108 0 -0.00657512)
(0.0087635 0 -0.00458009)
(-0.00396492 4.49482e-20 -0.00246404)
(-0.0155909 7.65165e-20 -0.000302053)
(-0.025119 6.10683e-20 0.00164904)
(-0.0330052 -3.33804e-24 0.00343523)
(-0.0385155 3.03315e-20 0.00484929)
(-0.042662 0 0.00606404)
(-0.0445738 -3.10842e-21 0.00686276)
(-0.045581 6.28057e-21 0.00749812)
(-0.0444188 1.42805e-20 0.00767945)
(-0.0428143 0 0.0077413)
(-0.0391521 0 0.00732335)
(-0.0358343 0 0.00690439)
(-0.0309099 -4.23644e-20 0.00607194)
(-0.027566 0 0.0054808)
(-0.0232564 0 0.00461692)
(-0.0218164 6.42372e-20 0.00427095)
(-0.0197015 0 0.00373362)
(-0.0213005 0 0.00389307)
(-0.0218906 0 0.00380578)
(-0.0265629 -7.02667e-20 0.00449458)
(-0.0293598 8.65416e-20 0.00480367)
(-0.0360774 9.57832e-20 0.00593684)
(-0.039289 2.06228e-22 0.00650517)
(-0.0452454 -1.25297e-19 0.00782085)
(-0.0450713 0 0.00817881)
(-0.0455509 1.2392e-19 0.0089365)
(-0.0376262 0 0.00817743)
(-0.029209 0 0.00742801)
(-0.0134445 0 0.00500295)
(0.00159369 1.21811e-23 0.00266361)
(0.0195101 -1.65309e-19 -0.00067194)
(0.0312837 -2.17782e-19 -0.00319333)
(0.0464121 2.24096e-19 -0.00640152)
(0.0319086 3.57697e-19 -0.00582608)
(0.0634278 0 -0.0108175)
(-0.0150919 0 0.0012659)
(0.0682036 7.19502e-19 -0.0155649)
(-0.0496349 1.36684e-18 0.0124786)
(-0.0315615 -2.43714e-18 0.000569642)
(0.123466 2.31393e-18 -0.0189777)
(-0.35279 0 0.0518791)
(0.376834 -1.50327e-17 -0.0702747)
(-0.776171 -8.63596e-18 0.166752)
(0.746377 -1.49652e-18 -0.168911)
(0.103573 2.42942e-17 0.0173915)
(-1.75297 0 0.322894)
(2.44919 0 -0.475171)
(-1.9316 0 0.412369)
(1.69632 0 -0.355885)
(-1.23966 0 0.291375)
(-0.533324 0 0.0669994)
(4.3116 -5.52858e-17 -0.789541)
(-5.74319 8.89285e-17 1.12521)
(4.23219 -3.84273e-17 -0.917707)
(-1.85002 0 0.534884)
(-0.898692 0 0.133096)
(6.39836 0 -1.21056)
(-9.52073 -8.39703e-17 2.09186)
(7.92422 3.41613e-16 -1.84046)
(-0.166374 1.27007e-16 0.253023)
(-8.82401 0 1.63688)
(13.3491 -2.33882e-16 -2.66298)
(-10.7696 0 2.32474)
(-3.43946 4.0675e-16 0.582151)
(15.6672 3.02184e-16 -2.99166)
(-12.2997 -7.56043e-17 2.60215)
(-3.57608 2.81082e-16 0.598982)
(9.82743 1.19903e-16 -1.95811)
(0.181812 1.2728e-20 0.0633113)
(0.22585 -6.1504e-17 -0.0535541)
(0.241972 0 -0.0847271)
(0.0441186 3.71534e-21 -0.12837)
(-0.0180343 0 -0.0135029)
(0.00326046 3.7288e-21 0.0121299)
(0.00876195 0 0.0115017)
(0.0104475 2.53697e-21 0.0119366)
(0.0155851 4.46165e-21 0.0118424)
(0.020162 1.80918e-21 0.0118613)
(0.0243885 0 0.0113577)
(0.0297904 1.41919e-22 0.00995623)
(0.0369758 1.40594e-21 0.00766503)
(0.0457041 -8.27283e-22 0.00476671)
(0.0553745 -3.51333e-22 0.00154243)
(0.0650782 -3.45903e-23 -0.00166904)
(0.0735494 3.6419e-22 -0.00445907)
(0.0794368 1.49061e-21 -0.00652799)
(0.0818205 0 -0.00784957)
(0.080554 -2.95903e-22 -0.00862986)
(0.0761473 2.70073e-21 -0.00910556)
(0.0693302 3.15076e-21 -0.00937378)
(0.0606801 0 -0.00937964)
(0.0505433 0 -0.00902306)
(0.0391745 2.77364e-21 -0.00826113)
(0.026872 0 -0.00712634)
(0.0139981 1.75819e-21 -0.00568156)
(0.000927082 -2.00496e-21 -0.00397301)
(-0.0119775 0 -0.00202534)
(-0.0243452 -6.58132e-22 0.000137063)
(-0.0357516 0 0.00246012)
(-0.0457184 3.03069e-21 0.00485517)
(-0.0537196 8.08192e-21 0.00719721)
(-0.059253 9.50815e-21 0.00934737)
(-0.0618539 5.15915e-21 0.011149)
(-0.0611868 -5.12194e-21 0.0124569)
(-0.0570239 -1.82236e-20 0.0131238)
(-0.0493759 -1.42236e-20 0.0130485)
(-0.0383993 0 0.0121426)
(-0.0245733 0 0.0104008)
(-0.00848511 -1.15732e-22 0.00783369)
(0.00888792 0 0.00457921)
(0.0265731 -1.37711e-20 0.000781667)
(0.0431745 0 -0.00324804)
(0.0575903 -4.54841e-20 -0.00725139)
(0.0683582 0 -0.010799)
(0.0748114 -5.72299e-20 -0.0136469)
(0.0759619 0 -0.0153986)
(0.0721689 6.04745e-20 -0.0160181)
(0.0632203 0 -0.0152916)
(0.0506668 0 -0.0135167)
(0.0347344 -5.01419e-20 -0.0106594)
(0.0177104 0 -0.00728941)
(-0.000537824 0 -0.00337512)
(-0.0174758 0 0.000394794)
(-0.0341601 -4.62373e-20 0.0042461)
(-0.0478452 -6.12369e-20 0.00745686)
(-0.0606938 0 0.0105405)
(-0.0694323 0 0.0126931)
(-0.077397 -5.00096e-21 0.0147112)
(-0.0804469 -1.42797e-20 0.0156038)
(-0.0833794 0 0.0164747)
(-0.0810098 0 0.0161008)
(-0.0800357 0 0.0159904)
(-0.0739349 0 0.0146606)
(-0.0715998 -3.62805e-20 0.0141011)
(-0.0645751 3.65656e-20 0.0124619)
(-0.0639882 -6.36577e-20 0.0121926)
(-0.0586512 0 0.0108965)
(-0.0619911 0 0.0114491)
(-0.0595727 0 0.0108031)
(-0.0675068 -1.50756e-22 0.0123301)
(-0.067794 -8.57141e-20 0.0123249)
(-0.0794665 -9.47808e-20 0.014744)
(-0.0805533 2.29147e-19 0.0151877)
(-0.0927846 5.58868e-22 0.0180942)
(-0.0902693 -1.30622e-19 0.0182792)
(-0.0971994 -1.22157e-19 0.0204931)
(-0.0856553 0 0.0190235)
(-0.0818843 0 0.0188946)
(-0.0605238 0 0.0148416)
(-0.0463329 -5.14361e-20 0.011789)
(-0.0206386 0 0.00605058)
(-0.00734108 0 0.00209431)
(0.0227564 -2.19328e-19 -0.00466178)
(-0.00713863 -3.49711e-19 -0.00195218)
(0.0807991 0 -0.0177839)
(-0.100697 0 0.014841)
(0.17129 0 -0.0388012)
(-0.186746 -1.33537e-18 0.0403037)
(-0.0127162 4.08227e-21 -0.00602568)
(0.306029 2.26036e-18 -0.050196)
(-0.873522 4.64686e-18 0.153972)
(1.08424 1.45918e-17 -0.205473)
(-2.27424 -8.41038e-18 0.463513)
(2.51403 2.88272e-18 -0.52981)
(-0.29309 0 0.176222)
(-4.54483 0 0.829345)
(7.19415 0 -1.40263)
(-6.21827 0 1.27718)
(5.36796 2.07439e-18 -1.09909)
(-4.22793 0 0.933124)
(-0.495404 0 -0.0118983)
(11.5609 -5.327e-17 -2.13435)
(-16.7031 -4.26171e-17 3.26574)
(13.1077 7.3574e-17 -2.77138)
(-7.89678 -5.73891e-17 1.83384)
(-0.940794 0 0.0996595)
(18.1107 0 -3.3761)
(-28.0534 0 5.86986)
(24.5291 -1.6167e-16 -5.44637)
(-2.98291 -1.20873e-16 0.58974)
(-22.8082 0 4.11098)
(39.1137 4.44895e-16 -7.64549)
(-34.7881 1.12773e-16 7.26769)
(-5.43396 -7.72456e-16 0.59049)
(44.8617 0 -8.48129)
(-39.862 0 8.2214)
(-6.7195 2.66543e-16 0.909346)
(29.4467 0 -5.78514)
(-1.32461 -5.51942e-17 0.487214)
(0.875991 5.81632e-17 -0.189379)
(1.24296 0 -0.27623)
(0.0288088 0 -0.062233)
(-0.000864474 0 -0.00313237)
(0.00414409 3.16898e-21 0.0172377)
(0.0131106 0 0.0168701)
(0.0177748 0 0.0178241)
(0.0204476 -2.11613e-21 0.0204969)
(0.0211405 -1.71329e-21 0.0231476)
(0.0212082 0 0.0246687)
(0.0228395 5.92183e-23 0.0241771)
(0.0274094 -1.33195e-21 0.0217274)
(0.0351056 1.61925e-21 0.0178962)
(0.0453422 3.32912e-22 0.0133552)
(0.0569074 5.75735e-23 0.00885442)
(0.0679772 -3.45052e-22 0.00510801)
(0.076521 -6.28765e-22 0.0024529)
(0.0810878 8.09734e-22 0.00067878)
(0.0813691 -2.2196e-21 -0.000730031)
(0.0780481 -2.5592e-21 -0.00216172)
(0.0721117 0 -0.00364262)
(0.0642517 0 -0.00494647)
(0.0547597 2.65477e-21 -0.00585862)
(0.0437929 2.40506e-21 -0.0063292)
(0.0316145 0 -0.00642475)
(0.0186083 0 -0.00619501)
(0.00515008 1.89971e-21 -0.00559746)
(-0.00845687 0 -0.00453272)
(-0.0219412 1.30915e-21 -0.00292055)
(-0.034953 -1.87035e-21 -0.000762987)
(-0.0470284 0 0.00185868)
(-0.057579 -3.83056e-21 0.00479758)
(-0.0659932 -4.48499e-21 0.00788772)
(-0.0716527 0 0.0109347)
(-0.0740738 4.66255e-21 0.0137565)
(-0.0728622 8.51259e-21 0.0161468)
(-0.0679095 2.07422e-22 0.017944)
(-0.0592286 0 0.0189587)
(-0.0472265 0 0.0190883)
(-0.0323564 3.84479e-21 0.0181983)
(-0.0155852 0 0.0163195)
(0.00221898 0 0.0134465)
(0.0195418 0 0.00983072)
(0.0353281 0 0.00562233)
(0.0478297 0 0.00129311)
(0.0564169 0 -0.0029474)
(0.0596722 0 -0.00651883)
(0.0580949 -5.51075e-20 -0.00934532)
(0.0509344 5.37964e-20 -0.0108926)
(0.0400983 0 -0.0114073)
(0.0251323 4.7439e-20 -0.0104626)
(0.00896521 0 -0.00869183)
(-0.00943675 0 -0.00570096)
(-0.0265044 -5.68855e-20 -0.00248113)
(-0.0444962 0 0.00150285)
(-0.0591167 2.91501e-20 0.00499192)
(-0.0741809 -1.7229e-20 0.00887409)
(-0.0842435 0 0.0116641)
(-0.0949487 4.72704e-21 0.0147391)
(-0.0992262 0 0.0163146)
(-0.105075 0 0.0183314)
(-0.103435 0 0.0185796)
(-0.10535 3.68564e-20 0.0196397)
(-0.0992244 3.82281e-20 0.0187492)
(-0.0997255 5.55502e-22 0.0192416)
(-0.0918334 -6.87158e-20 0.0176651)
(-0.0941653 1.76207e-22 0.018186)
(-0.0871382 0 0.0164752)
(-0.0936635 0 0.0175785)
(-0.0887741 -6.57299e-20 0.0161344)
(-0.100372 -2.59753e-22 0.0181472)
(-0.0974949 0 0.0171254)
(-0.113554 0 0.0201228)
(-0.110945 -1.0787e-19 0.019472)
(-0.128462 5.64118e-22 0.0232267)
(-0.121894 7.33404e-22 0.0225587)
(-0.134937 0 0.0262742)
(-0.119198 0 0.0247241)
(-0.121822 -1.18439e-19 0.0269907)
(-0.0967071 2.09081e-20 0.023796)
(-0.0880807 0 0.0233046)
(-0.0593255 0 0.018515)
(-0.0512189 0 0.016097)
(-0.0132222 0 0.00843521)
(-0.0631699 0 0.013514)
(0.0718915 0 -0.0118298)
(-0.209656 0 0.0359348)
(0.243647 0 -0.0536198)
(-0.358736 1.25265e-18 0.0726037)
(0.0104621 1.10816e-18 -0.02414)
(0.424531 -2.12445e-18 -0.0626767)
(-1.35518 -4.36655e-18 0.239692)
(1.75455 -1.37474e-17 -0.319697)
(-3.66845 7.89981e-18 0.706798)
(4.25016 -1.34808e-18 -0.910889)
(-1.00338 0 0.39305)
(-6.72213 0 1.08534)
(11.6017 0 -2.23147)
(-10.6259 0 2.19202)
(9.08923 -1.94613e-18 -1.88352)
(-7.40752 0 1.67519)
(0.291945 0 -0.452483)
(17.6693 4.99473e-17 -3.01982)
(-26.7921 0 5.16473)
(21.9405 -3.44907e-17 -4.67188)
(-15.0849 5.37801e-17 3.54281)
(0.384315 0 -0.729532)
(28.0386 0 -4.89091)
(-45.054 0 9.00059)
(40.6725 -1.42053e-16 -8.96099)
(-7.95733 0 2.47523)
(-32.943 1.35013e-16 5.23016)
(62.5125 5.30772e-19 -11.9137)
(-60.0202 -1.05544e-16 12.749)
(-3.21931 7.24588e-16 -1.00735)
(71.1613 0 -12.9227)
(-68.3189 6.69808e-17 14.4129)
(-6.38897 -2.49319e-16 -0.187809)
(47.9049 1.06334e-16 -9.32225)
(-3.96759 0 1.39619)
(1.63803 -5.43846e-17 -0.382651)
(2.29403 0 -0.481908)
(0.028919 0 -0.0213423)
(0.00981758 0 0.00251308)
(0.0131666 -2.9957e-21 0.0177071)
(0.0243384 0 0.0194964)
(0.0327015 2.26075e-21 0.0214299)
(0.0373738 -3.96367e-21 0.0266257)
(0.0382253 0 0.0324774)
(0.0363209 2.60159e-21 0.0360901)
(0.0341417 -1.90815e-21 0.036094)
(0.0340636 -1.3583e-21 0.0328817)
(0.0373637 -7.89982e-22 0.0276118)
(0.044183 4.05863e-22 0.0214843)
(0.0536442 -2.34612e-23 0.0157021)
(0.063861 -3.88357e-22 0.0112936)
(0.072338 0 0.0086028)
(0.0769762 -1.44913e-21 0.00708951)
(0.0770237 0 0.00580011)
(0.0731402 0 0.0040988)
(0.0665679 0 0.00200744)
(0.0582191 2.48983e-21 -4.44752e-05)
(0.0484066 -9.60691e-23 -0.00169212)
(0.03719 -8.405e-23 -0.00287077)
(0.0247753 1.82987e-21 -0.00369613)
(0.0115785 0 -0.00422466)
(-0.00197877 0 -0.00434243)
(-0.0156112 0 -0.00384738)
(-0.0291338 -1.35425e-21 -0.00258577)
(-0.0422886 -3.86828e-23 -0.000544566)
(-0.0546693 0 0.00217097)
(-0.0656908 0 0.00537567)
(-0.0747242 0 0.00887908)
(-0.0811093 0 0.0124689)
(-0.0843419 -8.74941e-21 0.015961)
(-0.0839909 0 0.0191351)
(-0.0799574 6.05725e-21 0.0218212)
(-0.072221 0 0.0237852)
(-0.061213 0 0.0248859)
(-0.0473145 -3.77887e-21 0.0249033)
(-0.0315186 0 0.0238206)
(-0.0145746 0 0.0215363)
(0.00192865 1.60736e-20 0.0182859)
(0.0170875 -3.90946e-20 0.0141348)
(0.0289918 0 0.00959545)
(0.0372309 -4.86189e-20 0.00480944)
(0.0401219 0 0.000475824)
(0.0385065 1.03062e-19 -0.00338295)
(0.0312246 -1.08011e-21 -0.00602278)
(0.0206937 0 -0.00775132)
(0.00581281 0 -0.00784592)
(-0.00976661 -3.80267e-20 -0.00706993)
(-0.0280534 -6.54187e-20 -0.00469348)
(-0.0444234 1.06747e-19 -0.0019925)
(-0.0625112 0 0.00193058)
(-0.0764778 2.80644e-20 0.00535088)
(-0.0920372 1.62635e-20 0.00960554)
(-0.101548 5.44993e-21 0.0125784)
(-0.113247 -2.67607e-21 0.0162649)
(-0.117025 0 0.0180848)
(-0.124391 0 0.0208263)
(-0.122173 -3.42094e-20 0.0212706)
(-0.126113 -6.83162e-20 0.0231054)
(-0.119159 -3.60556e-20 0.0222774)
(-0.122186 6.72205e-22 0.0235369)
(-0.113072 3.2236e-20 0.0218051)
(-0.118481 2.80978e-20 0.0230457)
(-0.109728 0 0.0209191)
(-0.119949 0 0.0227218)
(-0.112735 6.19425e-20 0.0206471)
(-0.128743 1.24881e-19 0.0234447)
(-0.122891 0 0.0216713)
(-0.14421 8.39346e-20 0.0256468)
(-0.138006 1.00942e-19 0.0242047)
(-0.161729 1.08846e-19 0.0292112)
(-0.151053 2.29695e-19 0.0278262)
(-0.171195 0 0.0331648)
(-0.151093 0 0.0311311)
(-0.161279 1.11454e-19 0.0353683)
(-0.132205 -3.80315e-20 0.0319804)
(-0.130527 4.7991e-20 0.0333126)
(-0.0986439 0 0.0284125)
(-0.0969751 0 0.0269612)
(-0.0520021 0 0.0185848)
(-0.121394 0 0.0250305)
(0.0562482 0 -0.00610247)
(-0.319298 0 0.0537844)
(0.306747 -6.5041e-19 -0.0660954)
(-0.541869 -6.69129e-21 0.110164)
(0.0539807 -1.04525e-18 -0.0505008)
(0.487183 0 -0.0541438)
(-1.78227 -4.12451e-18 0.301695)
(2.3722 6.46302e-18 -0.409153)
(-4.94578 0 0.915128)
(5.91209 -1.25214e-18 -1.29307)
(-1.99065 -2.07254e-17 0.673059)
(-8.26098 0 1.15812)
(15.5446 0 -2.93858)
(-15.007 0 3.12526)
(12.788 -1.7742e-18 -2.70017)
(-10.7899 0 2.50325)
(1.74623 0 -1.21313)
(22.582 4.71994e-17 -3.54014)
(-35.7707 3.77263e-17 6.84472)
(30.6323 0 -6.63442)
(-23.1257 0 5.54888)
(3.04564 0 -1.44674)
(36.098 0 -5.7854)
(-59.9917 0 11.7257)
(55.8425 4.89368e-18 -12.4666)
(-15.0732 0 5.29904)
(-39.0816 -1.26341e-16 5.34795)
(83.1166 -1.95522e-16 -15.4712)
(-85.6614 0 18.6161)
(2.67252 8.62163e-19 -4.08096)
(94.0916 0 -16.2238)
(-96.6402 2.37715e-19 20.8721)
(-2.96404 0 -2.30836)
(64.6433 -9.94181e-17 -12.5147)
(-7.56689 0 2.65257)
(2.52249 -5.08661e-17 -0.64243)
(3.23383 0 -0.666638)
(0.0292134 0 -0.0055449)
(0.0194912 0 0.00553025)
(0.02269 0 0.0169297)
(0.0323642 0 0.0202592)
(0.0418567 -2.13402e-21 0.0237177)
(0.049905 3.6945e-23 0.0312213)
(0.0554185 0 0.0400565)
(0.0573688 -2.45558e-21 0.0460283)
(0.0564442 0 0.0468481)
(0.0546705 2.61569e-21 0.0428931)
(0.0541261 0 0.035924)
(0.056175 -3.83168e-22 0.0278282)
(0.0611657 0 0.0204008)
(0.0681045 3.66698e-22 0.0151283)
(0.0746863 -3.3636e-22 0.012485)
(0.0782601 1.20061e-21 0.0116082)
(0.0772792 -1.54121e-21 0.0109734)
(0.0719967 -1.90291e-21 0.00952205)
(0.06381 0 0.0072285)
(0.0539993 -2.35109e-21 0.0047408)
(0.0430471 -2.28039e-21 0.0026371)
(0.0309194 -4.03329e-21 0.00103351)
(0.0176812 -1.72789e-21 -0.000243702)
(0.00374093 0 -0.0012834)
(-0.0103892 0 -0.00191481)
(-0.0243681 0 -0.00183605)
(-0.0380607 6.66531e-22 -0.000824399)
(-0.0513106 1.70669e-21 0.00113462)
(-0.0638019 0 0.00389567)
(-0.0749836 0 0.007225)
(-0.0842384 -3.91546e-21 0.0109097)
(-0.0908876 0 0.0147311)
(-0.094431 5.25052e-23 0.018523)
(-0.0944159 7.15437e-21 0.022074)
(-0.0907712 -5.4524e-21 0.0252337)
(-0.0834544 0 0.0277487)
(-0.0729454 0 0.0294687)
(-0.0595667 3.56658e-21 0.0301121)
(-0.0443665 0 0.0296447)
(-0.0279804 0 0.027887)
(-0.0120979 -1.51681e-20 0.0250802)
(0.0025382 3.68899e-20 0.0212016)
(0.0138328 0 0.0168017)
(0.021622 4.58711e-20 0.0119155)
(0.0239338 0 0.00732991)
(0.0219974 -4.81085e-20 0.00294549)
(0.0142064 -4.69198e-20 -0.000324036)
(0.00355188 0 -0.00292002)
(-0.0117612 -3.97247e-20 -0.00383958)
(-0.0272584 3.58613e-20 -0.00402422)
(-0.0459812 1.22262e-19 -0.0023726)
(-0.0621097 -5.00039e-20 -0.000458431)
(-0.0807461 3.84218e-20 0.00306699)
(-0.0943342 7.79856e-23 0.00601362)
(-0.110641 0 0.0102795)
(-0.119623 -5.13676e-21 0.0130875)
(-0.132351 2.52205e-21 0.0171546)
(-0.135418 -8.79888e-21 0.01902)
(-0.144186 1.21574e-20 0.0224172)
(-0.141035 3.22302e-20 0.0229908)
(-0.146853 3.16053e-20 0.0256554)
(-0.138685 -3.21618e-20 0.0249142)
(-0.144183 2.93064e-20 0.0270897)
(-0.133513 0 0.0252915)
(-0.142114 0 0.0274648)
(-0.131394 2.78943e-20 0.0250291)
(-0.145633 0 0.0277484)
(-0.135944 0 0.0250954)
(-0.156898 -5.889e-20 0.0288328)
(-0.147975 0 0.0262536)
(-0.175272 -7.89698e-20 0.0312804)
(-0.165353 -1.89619e-19 0.0288835)
(-0.196141 0 0.0351532)
(-0.181142 -1.07639e-19 0.0327908)
(-0.209348 0 0.0397317)
(-0.184509 0 0.03689)
(-0.203295 -1.02049e-19 0.0431475)
(-0.169635 1.72562e-20 0.0393261)
(-0.175943 9.58874e-22 0.0427895)
(-0.140126 0 0.037944)
(-0.145624 0 0.0379616)
(-0.0936014 0 0.0300408)
(-0.181274 2.8985e-19 0.0374077)
(0.0352189 2.80974e-20 0.00401679)
(-0.427478 0 0.0723608)
(0.361875 1.23134e-18 -0.0727393)
(-0.73181 -5.43865e-19 0.153982)
(0.117924 1.9655e-18 -0.0852474)
(0.493851 -1.93431e-18 -0.0221855)
(-2.14272 7.75988e-18 0.336321)
(2.92344 0 -0.467054)
(-6.09349 0 1.08775)
(7.47523 1.17409e-18 -1.66456)
(-3.11181 1.94303e-17 1.4652)
(-9.19168 3.16945e-17 0.983059)
(18.9228 0 -3.48927)
(-19.1965 0 4.03236)
(16.3889 1.66232e-18 -3.52625)
(-14.36 1.09339e-17 3.41924)
(3.76853 0 -2.18718)
(26.2806 -4.42033e-17 -3.65195)
(-43.4153 -3.53266e-17 8.19562)
(38.9874 0 -8.56463)
(-31.6885 0 7.7853)
(6.51049 0 -3.6217)
(42.1822 0 -6.05533)
(-72.454 0 13.8491)
(69.582 1.19828e-16 -15.8007)
(-24.1865 0 8.35094)
(-41.3884 0 4.44572)
(100.654 0 -18.2797)
(-110.812 9.32494e-17 24.5929)
(11.3722 -3.18143e-16 -8.32435)
(113.394 0 -18.4613)
(-123.592 -5.87833e-17 27.3127)
(2.77881 0 -5.51955)
(79.2656 -9.29401e-17 -15.1833)
(-11.8299 0 4.25327)
(3.52206 4.75362e-17 -0.981553)
(3.90281 0 -0.802822)
(0.0299969 2.91816e-21 0.00525369)
(0.0268199 2.66372e-21 0.0112161)
(0.0304178 -2.38021e-21 0.0185697)
(0.0376041 -2.13054e-21 0.0217143)
(0.0460188 0 0.025906)
(0.0555422 1.71913e-21 0.0346152)
(0.0654516 0 0.0454229)
(0.0735649 -2.32894e-21 0.0537082)
(0.0782089 -1.80806e-21 0.0562366)
(0.0794621 -2.5693e-21 0.0526737)
(0.0786812 8.53849e-22 0.0447717)
(0.0776645 -4.6391e-22 0.0348831)
(0.0780704 0 0.025448)
(0.0805981 0 0.018677)
(0.0841834 3.17115e-22 0.0155584)
(0.0862785 -8.19595e-23 0.0151662)
(0.0844626 1.74133e-22 0.0153691)
(0.0780624 1.62905e-22 0.0144455)
(0.0682542 0 0.0121192)
(0.0567145 0 0.00923153)
(0.0443157 0 0.00667073)
(0.0310242 3.59486e-21 0.00468568)
(0.0166749 1.45695e-21 0.00304547)
(0.00156626 0 0.00158464)
(-0.0136781 0 0.000502586)
(-0.02855 2.50841e-22 0.000205528)
(-0.0428744 0 0.00100029)
(-0.0565798 0 0.00290476)
(-0.069472 0 0.00572284)
(-0.0810656 0 0.0091594)
(-0.0907763 1.5915e-23 0.0129753)
(-0.097913 0 0.016947)
(-0.101982 3.58013e-23 0.0209348)
(-0.102496 -6.74406e-21 0.0247425)
(-0.0994054 6.68286e-23 0.0282497)
(-0.0926283 0 0.031189)
(-0.0827018 0 0.0334119)
(-0.069885 0 0.0345786)
(-0.0553039 0 0.03465)
(-0.0394687 0 0.0333711)
(-0.0241936 0 0.0310035)
(-0.0100367 0 0.0274315)
(0.000685938 -3.85334e-20 0.0232542)
(0.00809111 -4.17456e-20 0.0183807)
(0.0098643 0 0.0136916)
(0.00766829 -4.35852e-20 0.00893258)
(-0.000629413 0 0.00519478)
(-0.0113977 0 0.00186158)
(-0.027229 7.40924e-20 0.000234628)
(-0.0427177 0 -0.000851553)
(-0.0620671 -5.70452e-20 0.000113457)
(-0.0781015 0 0.00121198)
(-0.0975598 -7.19753e-20 0.00430796)
(-0.110948 -5.74787e-23 0.0066975)
(-0.128314 0 0.010927)
(-0.13692 0 0.0134923)
(-0.150985 0 0.0179312)
(-0.153428 1.58686e-20 0.0198042)
(-0.163884 -2.21859e-20 0.0239)
(-0.159803 -2.7704e-20 0.0245948)
(-0.167776 -2.75172e-20 0.0281622)
(-0.158322 5.96417e-20 0.0275038)
(-0.166586 2.62684e-20 0.0306825)
(-0.154225 0 0.0288092)
(-0.166356 0 0.0320186)
(-0.153471 -1.29514e-22 0.0292619)
(-0.17214 0 0.0330197)
(-0.159722 0 0.0297685)
(-0.186133 -5.5761e-20 0.0345795)
(-0.17383 0 0.0311575)
(-0.207743 0 0.0373811)
(-0.193739 1.7764e-19 0.033976)
(-0.232379 -9.47528e-20 0.0416757)
(-0.21261 0 0.0382606)
(-0.249839 0 0.0469816)
(-0.219716 0 0.043192)
(-0.248244 9.58394e-20 0.0516291)
(-0.209294 0 0.0471167)
(-0.224883 -8.73183e-20 0.0528414)
(-0.184347 1.29835e-19 0.0477719)
(-0.198178 0 0.0492668)
(-0.139053 0 0.0420685)
(-0.244415 -2.71991e-19 0.0494329)
(0.00727122 3.12088e-21 0.0162426)
(-0.535971 -5.14606e-19 0.0891598)
(0.406438 -5.82294e-19 -0.0759401)
(-0.928731 -4.97769e-19 0.199737)
(0.198341 -9.23318e-19 -0.128012)
(0.441089 1.8136e-18 0.0315286)
(-2.42871 2.4042e-20 0.343362)
(3.3916 0 -0.491509)
(-7.11029 6.65681e-18 1.18767)
(8.91775 0 -2.01258)
(-4.5943 0 1.24187)
(-9.54499 -2.96918e-17 0.679117)
(21.6575 0 -3.85446)
(-23.0241 0 4.87923)
(19.8085 0 -4.34303)
(-18.0687 -1.02375e-17 4.40976)
(6.21259 0 -3.35943)
(28.7657 -4.17833e-17 -3.34767)
(-49.5183 0 9.17928)
(46.7503 0 -10.4087)
(-40.4817 0 10.1973)
(10.7046 0 -6.13723)
(46.3132 0 -5.6707)
(-82.1149 -3.59802e-17 15.3326)
(81.6205 1.02761e-16 -18.9009)
(-34.6633 9.55334e-17 12.5121)
(-40.3668 0 2.54984)
(115.096 0 -20.2929)
(-134.354 -1.74601e-16 30.4662)
(21.9206 0 -13.1463)
(129.095 2.21084e-16 -19.7822)
(-147.656 0 33.4557)
(9.80597 -2.04953e-16 -9.66808)
(91.4149 8.68509e-17 -17.169)
(-16.3385 0 6.10127)
(4.6063 4.43614e-17 -1.40403)
(4.16215 0 -0.852219)
(0.0312611 -2.74814e-21 0.0128944)
(0.0315636 -4.99422e-21 0.0169526)
(0.0364182 2.24206e-21 0.0218912)
(0.0423666 6.08958e-23 0.0248636)
(0.0495015 -1.72643e-21 0.0291098)
(0.0587577 0 0.0374809)
(0.070529 0 0.0485789)
(0.0830545 2.19302e-21 0.0582555)
(0.093632 3.42841e-21 0.0627478)
(0.100427 -5.4317e-23 0.0607873)
(0.103089 -8.03956e-22 0.0534589)
(0.102485 4.36809e-22 0.0429074)
(0.100461 -2.16328e-22 0.031803)
(0.0990887 0 0.023064)
(0.0992175 0 0.0186251)
(0.0995074 -4.15909e-22 0.018085)
(0.0972772 2.24181e-21 0.0189879)
(0.0906724 2.90367e-21 0.0187792)
(0.0800219 0 0.0165927)
(0.0670982 0 0.0133044)
(0.0533267 0 0.0101981)
(0.0389179 -1.16036e-22 0.0078001)
(0.0234826 -2.64401e-21 0.00585981)
(0.00705434 9.3296e-22 0.00407065)
(-0.00970172 1.04912e-21 0.002596)
(-0.026005 -3.85427e-22 0.00194039)
(-0.0414841 -7.65386e-22 0.00252615)
(-0.0560718 -1.63317e-21 0.00439578)
(-0.0697083 -2.40147e-21 0.00729916)
(-0.0820143 0 0.0108642)
(-0.0924746 3.46044e-21 0.0148163)
(-0.1004 -3.63845e-21 0.018924)
(-0.105315 3.55653e-21 0.0230762)
(-0.106685 6.23524e-21 0.0270924)
(-0.104473 9.51979e-21 0.030888)
(-0.0985343 0 0.0341823)
(-0.08947 0 0.036837)
(-0.0774653 -3.08939e-21 0.0384526)
(-0.0637512 0 0.0389966)
(-0.0486897 9.73931e-21 0.0381358)
(-0.0342443 1.29069e-20 0.0361693)
(-0.0207435 0 0.032883)
(-0.0107649 7.19737e-20 0.0289443)
(-0.00385469 3.92852e-20 0.0241209)
(-0.00273758 0 0.0194076)
(-0.00524166 4.1012e-20 0.0143669)
(-0.0141267 3.92451e-20 0.0102912)
(-0.0250172 0 0.0063452)
(-0.0414421 -6.83869e-20 0.00415966)
(-0.0569152 2.99665e-20 0.00228614)
(-0.0769896 5.17825e-20 0.00268735)
(-0.0929259 0 0.00302947)
(-0.11335 4.3536e-22 0.00575915)
(-0.126544 -4.6707e-20 0.00757732)
(-0.145169 0 0.0117782)
(-0.153408 0 0.0140343)
(-0.169056 -4.97022e-22 0.0188335)
(-0.170864 -7.13323e-21 0.0206333)
(-0.183294 1.96424e-20 0.025432)
(-0.178228 2.60424e-20 0.0261752)
(-0.188681 2.58646e-20 0.0306789)
(-0.177831 -2.76158e-20 0.0300406)
(-0.189229 -4.87579e-20 0.0342854)
(-0.174997 0 0.0322807)
(-0.191082 0 0.0366195)
(-0.175779 -4.88826e-20 0.033491)
(-0.199379 0 0.038413)
(-0.183913 0 0.0345169)
(-0.216398 5.23716e-20 0.0405586)
(-0.200339 0 0.0362452)
(-0.241633 -6.95544e-20 0.0438512)
(-0.223106 -2.60725e-22 0.0393814)
(-0.270538 8.89549e-20 0.0487255)
(-0.245481 0 0.044182)
(-0.292862 0 0.0549173)
(-0.256829 0 0.0500481)
(-0.296425 8.7733e-20 0.0608972)
(-0.251381 0 0.0554578)
(-0.277772 4.13486e-20 0.0636581)
(-0.231597 -2.44039e-19 0.0581016)
(-0.255275 0 0.061161)
(-0.188727 0 0.0549462)
(-0.311786 0 0.0614303)
(-0.0280237 2.91812e-21 0.0309182)
(-0.645968 4.8243e-19 0.104386)
(0.43927 -5.63819e-19 -0.0750605)
(-1.13222 4.6653e-19 0.24744)
(0.291263 -8.72219e-19 -0.17805)
(0.327381 0 0.107528)
(-2.63393 -3.43968e-18 0.326003)
(3.75834 0 -0.477647)
(-7.97658 -6.2352e-18 1.28539)
(10.1677 0 -2.32753)
(-5.82465 0 2.88328)
(-9.41686 0 -0.0946862)
(23.6877 -2.33285e-17 -4.01378)
(-26.328 9.7612e-18 5.62339)
(22.961 0 -5.12586)
(-21.8232 9.60858e-18 5.44383)
(8.91056 2.86498e-17 -4.70962)
(30.0607 3.90955e-17 -2.63179)
(-53.9518 3.14166e-17 9.7475)
(53.6707 0 -12.0905)
(-49.047 0 12.6881)
(15.5223 0 -7.80122)
(48.437 0 -4.6327)
(-88.8338 3.36448e-17 16.1199)
(91.7758 -4.77113e-18 -21.6733)
(-46.1065 -1.78558e-16 16.3529)
(-36.8205 0 -0.406004)
(126.533 0 -21.1817)
(-155.078 8.1709e-17 35.9284)
(32.8213 0 -18.9794)
(141.162 -2.06603e-16 -19.773)
(-167.161 0 38.9186)
(16.9828 3.83029e-16 -14.2814)
(100.63 0 -18.5862)
(-20.5421 0 8.08062)
(5.71733 -4.14405e-17 -1.90192)
(3.89839 0 -0.793054)
(0.0331306 0 0.0179689)
(0.0352367 2.3381e-21 0.0217115)
(0.0416937 0 0.026051)
(0.0475926 1.83084e-21 0.029256)
(0.0542572 3.20507e-21 0.0332972)
(0.0628477 0 0.0404896)
(0.0744876 -1.21541e-21 0.0504836)
(0.0885241 0 0.060242)
(0.102588 1.37644e-23 0.0660882)
(0.114143 2.47142e-21 0.066134)
(0.121467 0 0.0606228)
(0.12399 0 0.0509542)
(0.122559 2.03476e-22 0.0393599)
(0.119331 0 0.0289481)
(0.11658 0 0.0225957)
(0.11486 0 0.0210088)
(0.112367 -9.75867e-22 0.0220808)
(0.106537 -1.28637e-21 0.0226058)
(0.0963824 -1.34975e-21 0.0208015)
(0.0830999 0 0.0172163)
(0.0685081 0 0.0134837)
(0.0533494 -1.43406e-21 0.0105889)
(0.0372157 1.19646e-21 0.00838662)
(0.0197585 -8.77462e-22 0.00638133)
(0.00147803 -9.86697e-22 0.00458921)
(-0.0165822 1.77239e-22 0.00357004)
(-0.0336751 -7.5943e-23 0.00390082)
(-0.0495607 1.536e-21 0.00569891)
(-0.0642601 2.25855e-21 0.00867576)
(-0.0775259 0 0.0123683)
(-0.0889596 0 0.0164532)
(-0.0979026 3.42172e-21 0.0206826)
(-0.103923 0 0.0249741)
(-0.106434 -5.86355e-21 0.0291588)
(-0.105409 -4.46134e-21 0.033193)
(-0.100604 2.49823e-21 0.036782)
(-0.0926907 0 0.0398082)
(-0.0817584 2.90488e-21 0.0418092)
(-0.0691809 5.90338e-21 0.0427699)
(-0.0551422 -1.64405e-22 0.0422712)
(-0.0417904 -2.40687e-20 0.0406669)
(-0.0291627 0 0.0376349)
(-0.0201528 -3.35704e-20 0.0339353)
(-0.0138955 0 0.0291753)
(-0.0136177 0 0.0244927)
(-0.0165336 0 0.0192337)
(-0.0261594 -5.78022e-22 0.0149269)
(-0.0372257 0 0.0104678)
(-0.0543773 3.18434e-20 0.00786123)
(-0.0698412 -5.58543e-20 0.00530548)
(-0.0907674 -4.86608e-20 0.00527588)
(-0.106575 0 0.004931)
(-0.128111 3.1226e-20 0.00738578)
(-0.14106 4.34585e-20 0.00863628)
(-0.161128 0 0.0128464)
(-0.168928 0 0.0147344)
(-0.186397 4.66886e-22 0.0198991)
(-0.187467 5.83973e-21 0.0215326)
(-0.202163 -8.9615e-21 0.0270412)
(-0.195971 -2.26164e-20 0.0277343)
(-0.209255 0 0.0332071)
(-0.196813 0 0.0324973)
(-0.211769 5.41306e-22 0.0378754)
(-0.195405 -2.32491e-20 0.0356557)
(-0.21595 0 0.0412277)
(-0.197898 2.28652e-20 0.0376511)
(-0.227046 0 0.0438812)
(-0.208137 0 0.0392723)
(-0.247458 0 0.0467307)
(-0.227185 0 0.0414642)
(-0.276797 9.77703e-23 0.0506783)
(-0.253218 -2.49801e-22 0.0450809)
(-0.310576 -8.27421e-20 0.0563313)
(-0.279608 0 0.0505802)
(-0.338483 -8.03078e-20 0.063616)
(-0.295779 0 0.0575347)
(-0.348 -8.22673e-20 0.0710854)
(-0.295904 1.05061e-20 0.0644823)
(-0.3349 3.99051e-20 0.0754335)
(-0.281965 1.14596e-19 0.0690992)
(-0.317425 0 0.0738764)
(-0.242755 -1.47258e-19 0.0687798)
(-0.384283 0 0.0736247)
(-0.0707107 -2.86361e-20 0.0479772)
(-0.75883 4.53039e-19 0.118127)
(0.460024 5.28187e-19 -0.0700018)
(-1.34252 0 0.296072)
(0.393391 1.6361e-18 -0.233958)
(0.152025 0 0.204681)
(-2.75513 -3.26793e-18 0.280441)
(4.01243 0 -0.426293)
(-8.72226 -5.92619e-18 1.1976)
(11.3192 0 -2.60685)
(-7.17028 1.59654e-17 4.16737)
(-8.86706 2.649e-17 -0.535233)
(25.001 2.18308e-17 -3.95308)
(-28.9644 -9.1336e-18 6.22783)
(25.7601 0 -5.84669)
(-25.4877 -1.79416e-17 6.49443)
(11.6762 -5.36567e-17 -6.25966)
(30.22 0 -1.51916)
(-56.6949 -2.93821e-17 9.8811)
(59.5347 0 -13.5462)
(-56.9825 0 15.1728)
(20.1943 1.11813e-16 -10.7191)
(48.6674 0 -2.9658)
(-92.6865 0 16.2112)
(100.047 -8.53507e-17 -24.0639)
(-57.4757 1.66527e-16 20.8501)
(-31.7365 -1.00008e-16 -4.15024)
(135.02 0 -21.0844)
(-171.762 0 40.7406)
(42.8982 0 -25.2363)
(149.448 0 -18.4758)
(-180.453 4.81886e-17 43.3921)
(23.557 -1.78923e-16 -19.1965)
(106.8 0 -19.412)
(-23.8058 0 10.057)
(6.77551 0 -2.45365)
(3.03896 0 -0.593344)
(0.035913 -2.26751e-21 0.022033)
(0.0390381 0 0.0260653)
(0.0469496 -1.85236e-21 0.0305585)
(0.0532081 0 0.0341154)
(0.0600395 -1.48576e-21 0.0379471)
(0.0682783 0 0.0438925)
(0.0790798 1.14231e-21 0.0522288)
(0.0926073 -1.88916e-21 0.061045)
(0.107387 -3.08475e-21 0.0673028)
(0.121193 3.46365e-23 0.0689592)
(0.131909 0 0.0656493)
(0.138045 0 0.0579578)
(0.139182 0 0.0472605)
(0.136474 0 0.0361991)
(0.13235 0 0.0280483)
(0.128875 0 0.0247045)
(0.125937 6.25161e-22 0.0251108)
(0.121342 -8.84902e-22 0.0260452)
(0.113007 1.26823e-21 0.0248133)
(0.100895 0 0.0211951)
(0.0866148 0 0.0168752)