/*--------------------------------*- C++ -*----------------------------------*\
| =========                 |                                                 |
| \\      /  F ield         | OpenFOAM: The Open Source CFD Toolbox           |
|  \\    /   O peration     | Version:  2412                                  |
|   \\  /    A nd           | Website:  www.openfoam.com                      |
|    \\/     M anipulation  |                                                 |
\*---------------------------------------------------------------------------*/
FoamFile
{
    version     2.0;
    format      ascii;
    arch        "LSB;label=32;scalar=64";
    class       volVectorField;
    location    "1.765";
    object      ddt0(U);
}
// * * * * * * * * * * * * * * * * * * * * * * * * * * * * * * * * * * * * * //

dimensions      [0 1 -2 0 0 0 0];

internalField   nonuniform List<vector> 
12600
(
(-0.488295 -8.22004e-21 0.0233887)
(-0.36558 -1.93338e-20 0.00523449)
(-0.361816 -1.2166e-20 -0.0270745)
(-0.336648 0 -0.00701233)
(-0.268075 -1.03601e-20 0.00734817)
(-0.219066 -9.59842e-21 0.010387)
(-0.181698 0 0.00988766)
(-0.138891 0 0.0153344)
(-0.08975 1.83822e-20 0.0196348)
(-0.0410516 0 0.0222974)
(0.00220616 -5.10352e-22 0.023434)
(0.0379905 4.17162e-21 0.0228919)
(0.0667555 -8.7117e-21 0.0206386)
(0.0897334 0 0.0169446)
(0.107654 -1.56239e-20 0.0123144)
(0.120628 0 0.00728946)
(0.128684 8.05893e-20 0.00229818)
(0.132127 0 -0.00236585)
(0.131447 -4.22738e-20 -0.00649002)
(0.127159 -4.11751e-20 -0.00990812)
(0.11982 3.89171e-20 -0.0125122)
(0.110168 -4.46573e-22 -0.0142741)
(0.0991484 0 -0.0152465)
(0.087798 -5.82639e-20 -0.0155445)
(0.0770286 0 -0.0153205)
(0.067416 0 -0.0147339)
(0.0590918 -3.9903e-20 -0.0139243)
(0.0517678 0 -0.0129938)
(0.0448541 9.31814e-23 -0.0120027)
(0.0375916 2.87162e-20 -0.0109715)
(0.0291916 2.5428e-20 -0.00988528)
(0.0189769 2.1846e-20 -0.00869831)
(0.00656169 -1.76517e-20 -0.00734917)
(-0.00801142 -2.52183e-20 -0.00577723)
(-0.024181 -1.32206e-20 -0.00395049)
(-0.0409382 -1.2873e-21 -0.00187863)
(-0.0569372 0 0.000365123)
(-0.0707418 3.15671e-20 0.00265289)
(-0.0809735 0 0.00479786)
(-0.0865799 -6.0669e-20 0.00659709)
(-0.0868797 0 0.00784203)
(-0.0818107 6.87463e-22 0.00839134)
(-0.0718119 0 0.00817146)
(-0.0580171 -6.48108e-22 0.00725016)
(-0.041828 -1.50696e-19 0.00577157)
(-0.025026 1.34509e-19 0.0040018)
(-0.00903519 -1.09909e-19 0.00217902)
(0.00479232 0 0.00056928)
(0.0160348 0 -0.000733196)
(0.0243925 -3.38146e-20 -0.00165633)
(0.0306109 -2.41788e-20 -0.00235959)
(0.0350216 1.07679e-20 -0.00293443)
(0.038808 -8.63349e-22 -0.00365579)
(0.0419453 5.38815e-20 -0.00453687)
(0.0452623 0 -0.00573253)
(0.0477984 -6.34258e-20 -0.00698298)
(0.0500496 -5.84664e-20 -0.00828428)
(0.0504341 -4.75583e-20 -0.00918077)
(0.0499229 0 -0.00974121)
(0.0469701 0 -0.00955852)
(0.0437112 0 -0.00902248)
(0.0386774 -4.66425e-20 -0.00786283)
(0.035098 0 -0.00680091)
(0.0307427 0 -0.00550238)
(0.0292387 1.89562e-19 -0.00481879)
(0.0265213 0 -0.00405158)
(0.0263399 0 -0.00402979)
(0.0226769 0 -0.00357432)
(0.020479 -5.99111e-20 -0.00359782)
(0.0127837 4.37794e-20 -0.00264741)
(0.00728711 1.19384e-20 -0.0020715)
(-0.0034441 -5.88202e-22 -0.000387084)
(-0.00855584 -2.33827e-20 0.000413112)
(-0.0170185 0 0.00200814)
(-0.0159299 6.53946e-20 0.00191531)
(-0.0176409 0 0.00241584)
(-0.00859158 0 0.000791713)
(-0.00443929 0 0.000104688)
(0.00905799 -8.33842e-22 -0.00231989)
(0.0140726 1.03091e-19 -0.00337091)
(0.0263055 3.67956e-20 -0.00521312)
(0.0297698 2.09492e-20 -0.00578644)
(0.0205879 1.14697e-19 -0.00699856)
(0.0287464 0 -0.0058052)
(0.022781 0 -0.00404521)
(0.0173497 1.78191e-18 -0.000452957)
(0.106802 4.57454e-18 -0.0157329)
(-0.129102 4.46293e-18 0.0206962)
(0.472259 -1.40242e-18 -0.0881864)
(-0.532892 0 0.0951032)
(0.579454 -1.18485e-17 -0.117075)
(0.0673479 -8.3437e-18 6.11614e-05)
(-0.755355 -1.00716e-17 0.12451)
(1.79195 -2.08349e-17 -0.313534)
(-2.6967 0 0.510317)
(5.03352 0 -0.957664)
(-4.91433 0 1.00805)
(1.63803 0 -0.302761)
(4.60331 0 -0.853571)
(-9.9198 0 1.85811)
(8.13546 4.60844e-17 -1.58552)
(-8.34632 -3.82834e-17 1.63455)
(5.77924 -3.24029e-17 -1.12583)
(-0.270373 0 0.0485468)
(-2.11802 0 0.365704)
(5.97428 0 -1.12609)
(-7.87397 -5.02725e-17 1.43995)
(10.6341 6.34688e-17 -1.99463)
(-19.0563 7.29522e-17 3.72848)
(5.65492 0 -1.19631)
(18.6984 1.25082e-16 -3.53019)
(-11.4975 0 2.2953)
(-1.35479 1.43624e-16 0.271193)
(2.82803 1.69966e-17 -0.644329)
(7.33845 -1.37708e-17 -1.28835)
(-10.4788 -5.86619e-17 2.09849)
(-3.21375 -1.03527e-17 0.53457)
(11.8183 -4.08837e-20 -2.27188)
(-2.33421 3.48656e-17 0.5158)
(-3.26964 0 0.647602)
(-0.309933 8.29737e-21 0.096938)
(-0.281843 0 0.0371169)
(-0.393555 1.23082e-20 -0.0648538)
(-0.448296 0 -0.0469198)
(-0.432137 1.0496e-20 -0.0110291)
(-0.411625 1.95317e-20 0.00902626)
(-0.388565 8.25755e-21 0.0195266)
(-0.352527 0 0.0333967)
(-0.307688 2.64265e-22 0.0457577)
(-0.259343 5.94554e-21 0.0560999)
(-0.212827 -1.76018e-21 0.0635463)
(-0.169094 2.77378e-21 0.066894)
(-0.126276 -7.34221e-21 0.0657795)
(-0.0830354 1.15459e-20 0.0608546)
(-0.0400108 3.09439e-20 0.0531891)
(0.00103705 0 0.0436857)
(0.0385686 -1.00634e-21 0.0329587)
(0.0716676 4.18656e-20 0.0215463)
(0.0996462 4.28873e-20 0.0100975)
(0.121723 0 -0.000654121)
(0.137208 0 -0.0100697)
(0.145953 3.68563e-20 -0.017765)
(0.148629 0 -0.0236473)
(0.146615 2.977e-20 -0.0278445)
(0.141591 -5.35975e-20 -0.0306035)
(0.135075 0 -0.0322071)
(0.128152 4.12369e-20 -0.0329331)
(0.121423 0 -0.0330367)
(0.115079 -3.24847e-20 -0.0327421)
(0.108968 -5.7891e-20 -0.0322172)
(0.102648 -5.11702e-20 -0.0315493)
(0.0954522 -2.21123e-20 -0.0307232)
(0.0866996 1.78618e-20 -0.0296474)
(0.0758915 5.11235e-20 -0.0281796)
(0.0629418 2.72912e-20 -0.0261898)
(0.0481516 0 -0.0235761)
(0.0322457 0 -0.020331)
(0.0161254 -1.58685e-21 -0.0165249)
(0.000924565 0 -0.0123707)
(-0.0123287 6.12478e-20 -0.00814304)
(-0.0225147 0 -0.00422999)
(-0.0289618 1.59709e-19 -0.000950722)
(-0.0311062 0 0.00138085)
(-0.0292568 1.63783e-19 0.00270005)
(-0.0237506 0 0.00298764)
(-0.0158461 -1.35443e-19 0.00252796)
(-0.00617763 0 0.00149978)
(0.00385847 0 0.000319474)
(0.0143144 6.44904e-20 -0.000963206)
(0.0242415 0 -0.00208126)
(0.034695 0 -0.00333172)
(0.0448335 0 -0.0046124)
(0.0562573 -3.65843e-20 -0.00645541)
(0.0672891 -1.07994e-19 -0.00859669)
(0.0794757 0 -0.0114816)
(0.0896456 0 -0.0143451)
(0.099535 6.14271e-20 -0.0174692)
(0.104749 4.75565e-20 -0.0196399)
(0.108456 0 -0.0213625)
(0.105761 0 -0.0213526)
(0.102501 0 -0.0208392)
(0.0932401 0 -0.0186452)
(0.086839 -6.70896e-20 -0.0168614)
(0.0759296 8.95921e-20 -0.0140475)
(0.0717105 -1.8569e-19 -0.0128486)
(0.0628464 0 -0.0109203)
(0.0625676 0 -0.0111942)
(0.0546197 0 -0.0100763)
(0.0557564 -2.05224e-21 -0.0110018)
(0.045354 -4.33618e-20 -0.00934782)
(0.0459742 -1.18145e-20 -0.00971554)
(0.0326761 6.03201e-20 -0.0067773)
(0.0352666 -4.8599e-22 -0.00682843)
(0.0231328 -6.33565e-20 -0.00358773)
(0.0330097 -6.44638e-20 -0.0049746)
(0.0264088 0 -0.0030913)
(0.0453747 0 -0.00705504)
(0.043863 0 -0.00701696)
(0.0678392 1.34588e-19 -0.0125808)
(0.0676809 0 -0.0131928)
(0.0886632 0 -0.01769)
(0.0901705 -2.05017e-20 -0.0177594)
(0.0828851 -1.12135e-19 -0.0196871)
(0.0944666 0 -0.0188822)
(0.088025 0 -0.0153921)
(0.0582136 0 -0.00797894)
(0.271319 -4.45907e-18 -0.0439182)
(-0.357758 5.4723e-21 0.0599627)
(1.25292 -1.36858e-18 -0.238139)
(-1.54401 1.70818e-18 0.2863)
(1.70748 1.15019e-17 -0.356101)
(-0.0656234 -8.16377e-18 0.0538202)
(-1.9958 1.95117e-17 0.327031)
(4.76226 0 -0.864122)
(-7.82732 0 1.45998)
(14.3698 0 -2.75556)
(-15.0417 0 3.06681)
(6.18549 1.89069e-17 -1.46681)
(12.4886 0 -2.18293)
(-27.7312 0 5.25643)
(24.1484 4.42608e-17 -4.7436)
(-26.2508 1.83194e-17 5.16207)
(17.6169 6.19898e-17 -3.5927)
(-2.25932 4.51399e-17 0.630818)
(-4.08419 0 0.681904)
(17.4878 0 -3.25683)
(-21.4017 0 3.9802)
(30.8367 -3.02497e-17 -5.69097)
(-57.9257 -6.94292e-17 11.3282)
(19.7705 0 -4.52876)
(50.5549 -2.38152e-16 -9.50989)
(-33.9029 2.72182e-16 6.97642)
(0.63084 -2.7295e-16 -0.348394)
(9.27417 0 -2.02345)
(18.3168 0 -3.21577)
(-31.6648 -5.55348e-17 6.33124)
(-5.89209 0 0.786695)
(33.6979 5.97728e-17 -6.52449)
(-8.42655 -3.29769e-17 1.91119)
(-9.60616 0 1.88785)
(-0.140569 0 0.11636)
(-0.163812 0 0.0193426)
(-0.272499 1.14034e-20 -0.0816571)
(-0.361128 0 -0.0837582)
(-0.403425 0 -0.0504453)
(-0.4209 -9.37658e-21 -0.0185594)
(-0.419178 -7.82016e-21 0.00482295)
(-0.398719 0 0.022171)
(-0.364674 -1.24977e-22 0.0399731)
(-0.32501 -5.63269e-21 0.0590503)
(-0.28651 3.49307e-21 0.0761104)
(-0.250015 -2.62806e-21 0.0878721)
(-0.212433 3.6503e-22 0.0935427)
(-0.171435 -1.09406e-20 0.0943137)
(-0.127659 -1.42995e-20 0.0914516)
(-0.0833998 1.64476e-20 0.0852978)
(-0.0405383 -3.74997e-20 0.0757275)
(-5.68446e-05 -3.96736e-20 0.0630183)
(0.037186 0 0.0481707)
(0.0698682 0 0.032605)
(0.0964734 3.7818e-20 0.017639)
(0.116049 3.53248e-20 0.00412542)
(0.128752 0 -0.00759865)
(0.135801 0 -0.0175274)
(0.138944 5.0787e-20 -0.0257713)
(0.139832 0 -0.0324535)
(0.139661 -7.78868e-20 -0.0377266)
(0.139122 3.41742e-20 -0.0418152)
(0.138518 0 -0.045016)
(0.137812 2.72945e-20 -0.0476239)
(0.136646 2.4087e-20 -0.0498558)
(0.13436 0 -0.051789)
(0.13022 -1.66226e-20 -0.0533896)
(0.123632 -2.42603e-20 -0.0545255)
(0.114436 3.40007e-22 -0.0550283)
(0.102832 0 -0.0546699)
(0.0894559 0 -0.0532569)
(0.0750501 -2.8698e-20 -0.050603)
(0.0606547 0 -0.0466911)
(0.0471703 0 -0.0415928)
(0.0357995 0 -0.0356499)
(0.0272548 0 -0.0292149)
(0.0224065 0 -0.0228442)
(0.0210477 0 -0.0168759)
(0.0232573 0 -0.0117979)
(0.0277925 1.33737e-19 -0.00768022)
(0.0344911 -1.13255e-19 -0.00481969)
(0.0417783 0 -0.00295415)
(0.0502242 -6.1014e-20 -0.00227913)
(0.0584026 0 -0.002301)
(0.0679764 0 -0.00332534)
(0.0772849 -2.72115e-21 -0.00475666)
(0.0887902 0 -0.00716354)
(0.0996231 5.10368e-20 -0.00976557)
(0.112614 -6.21732e-20 -0.01332)
(0.122916 0 -0.0166007)
(0.13413 -5.80621e-20 -0.0204863)
(0.139512 0 -0.023177)
(0.144886 0 -0.0259276)
(0.142111 0 -0.0265297)
(0.140765 -8.34857e-22 -0.0271136)
(0.131009 3.56957e-20 -0.0252274)
(0.126939 3.15943e-21 -0.0242326)
(0.115198 -1.66425e-19 -0.0211242)
(0.11406 2.17778e-21 -0.0203903)
(0.104072 0 -0.0177697)
(0.107826 0 -0.0186913)
(0.0983314 -1.08477e-19 -0.017075)
(0.104605 -2.25768e-21 -0.0195134)
(0.0921348 0 -0.0179781)
(0.099164 0 -0.020843)
(0.0829709 -2.9146e-20 -0.018197)
(0.0931606 -8.0242e-22 -0.0209539)
(0.0768485 3.96832e-22 -0.0171849)
(0.0953761 0 -0.0206665)
(0.0831168 0 -0.0169583)
(0.111576 -1.69554e-19 -0.0223945)
(0.103122 2.10718e-19 -0.0197161)
(0.136803 0 -0.0268997)
(0.12974 0 -0.0248946)
(0.158634 0 -0.0313186)
(0.156201 0 -0.0296119)
(0.150839 0 -0.0315432)
(0.164852 0 -0.03269)
(0.157337 0 -0.0292582)
(0.108838 0 -0.0219636)
(0.427288 4.19944e-18 -0.0663829)
(-0.54616 -2.0465e-18 0.0830441)
(1.96809 1.28629e-18 -0.348631)
(-2.49576 -1.60514e-18 0.466511)
(2.85586 -1.08278e-17 -0.606344)
(-0.341723 7.66816e-18 0.177975)
(-2.94886 -9.17669e-18 0.413612)
(7.43396 0 -1.26578)
(-12.6492 0 2.24362)
(22.941 0 -4.29694)
(-25.1012 0 5.18028)
(11.8549 -1.77377e-17 -3.19701)
(18.871 0 -2.8034)
(-43.1854 0 7.97056)
(39.6501 -4.15e-17 -7.76213)
(-45.4242 0 9.02697)
(29.5416 -2.90368e-17 -6.35775)
(-6.07649 -4.23012e-17 1.85108)
(-3.92677 0 0.321101)
(28.219 0 -5.06565)
(-32.5506 0 5.83631)
(50.3839 -2.86746e-17 -8.81999)
(-97.1245 0 19.0243)
(36.0798 2.51001e-17 -9.32963)
(76.1983 -4.19706e-19 -13.5526)
(-54.2991 -2.54735e-16 11.5649)
(6.54707 2.56199e-16 -2.31527)
(14.6101 0 -3.30209)
(26.6964 1.14318e-17 -4.14486)
(-52.4516 5.19461e-17 10.5873)
(-5.18711 -8.62614e-18 -0.232921)
(53.4916 0 -10.2015)
(-15.901 3.08345e-17 3.9292)
(-15.4361 0 2.99404)
(-0.0976546 0 0.0356088)
(-0.10274 0 -0.0118427)
(-0.175668 -1.07804e-20 -0.0729658)
(-0.255999 0 -0.0826816)
(-0.317757 9.32987e-21 -0.0622905)
(-0.356133 -1.69385e-20 -0.0372557)
(-0.371846 0 -0.0189412)
(-0.365003 1.12949e-20 -0.00430151)
(-0.340108 -8.57341e-21 0.0154159)
(-0.306735 -5.06646e-21 0.0412236)
(-0.273808 -1.72606e-21 0.0668255)
(-0.243799 -2.12748e-21 0.0858633)
(-0.213295 6.23423e-21 0.0968732)
(-0.178535 -1.92458e-20 0.102137)
(-0.139457 0 0.10367)
(-0.098704 -3.05496e-20 0.101356)
(-0.0585326 0 0.0941799)
(-0.0197531 0 0.0820636)
(0.0171607 0 0.0663274)
(0.0509759 3.59841e-20 0.048978)
(0.079836 -1.1199e-21 0.0317884)
(0.102239 -9.67774e-22 0.0157844)
(0.117905 2.96323e-20 0.00127514)
(0.127881 0 -0.0117739)
(0.133946 0 -0.0233923)
(0.137819 0 -0.0335061)
(0.140692 7.28656e-20 -0.0420572)
(0.143186 -3.83988e-22 -0.0491295)
(0.145529 0 -0.0549662)
(0.147642 0 -0.0598537)
(0.149162 0 -0.0640144)
(0.149404 0 -0.0675328)
(0.147623 3.15881e-20 -0.070411)
(0.143213 0 -0.0725705)
(0.136069 -1.2788e-20 -0.0739037)
(0.126432 0 -0.0741915)
(0.115006 0 -0.073211)
(0.102495 2.45405e-20 -0.0706809)
(0.089932 0 -0.0665047)
(0.0781066 0 -0.0606627)
(0.0682512 -6.12773e-20 -0.053501)
(0.0609781 1.37928e-19 -0.0453713)
(0.0572715 0 -0.0369543)
(0.0567759 1.46997e-19 -0.0286702)
(0.0597439 0 -0.0212463)
(0.0646938 -2.53212e-19 -0.0148718)
(0.0717513 -1.19167e-21 -0.0101228)
(0.0789971 0 -0.00675884)
(0.087468 0 -0.00518008)
(0.0952257 3.92766e-20 -0.00470435)
(0.104642 3.57123e-20 -0.00575677)
(0.113307 2.83096e-21 -0.00737627)
(0.124738 0 -0.0102957)
(0.134958 4.79461e-20 -0.0132875)
(0.148293 5.86892e-20 -0.0174587)
(0.158242 6.15951e-20 -0.0210921)
(0.170456 5.81571e-20 -0.0256497)
(0.175763 0 -0.0287031)
(0.182804 0 -0.0322899)
(0.180009 3.51822e-20 -0.0332836)
(0.180882 4.03037e-21 -0.0348031)
(0.170914 -3.36671e-20 -0.0331245)
(0.169661 2.34555e-21 -0.0329423)
(0.157422 7.71542e-20 -0.0296082)
(0.15984 7.96897e-20 -0.0294705)
(0.14889 0 -0.0262029)
(0.156951 0 -0.0277571)
(0.145752 1.02227e-19 -0.0254067)
(0.15717 1.15586e-19 -0.0289812)
(0.14212 0 -0.0269458)
(0.15534 1.7759e-20 -0.0316316)
(0.135512 3.13602e-20 -0.0285437)
(0.153073 2.16916e-20 -0.033479)
(0.131878 1.1134e-19 -0.0288053)
(0.159098 0 -0.0343981)
(0.140714 0 -0.0289694)
(0.179132 1.59553e-19 -0.0363095)
(0.163546 -3.93867e-19 -0.0312087)
(0.207826 -1.22139e-19 -0.0404151)
(0.193719 0 -0.0359567)
(0.231742 0 -0.0446922)
(0.225083 0 -0.0413465)
(0.223056 0 -0.0447379)
(0.239901 0 -0.0463689)
(0.231947 0 -0.0430147)
(0.17106 -1.54e-18 -0.0378856)
(0.578108 3.51458e-21 -0.0851997)
(-0.689637 1.92484e-18 0.0844986)
(2.62078 0 -0.439754)
(-3.36209 -1.46053e-18 0.626014)
(4.01648 5.08674e-18 -0.873114)
(-0.72732 0 0.353792)
(-3.58597 -8.62809e-18 0.392628)
(9.79036 1.78135e-17 -1.55226)
(-17.0751 0 2.87819)
(30.5846 0 -5.61983)
(-34.8785 0 7.3148)
(18.4566 -1.68588e-17 -5.15089)
(23.6221 0 -2.84127)
(-55.7873 0 10.0567)
(54.2922 -3.90351e-17 -10.5802)
(-65.2724 -1.59706e-17 13.0856)
(41.1448 0 -9.29144)
(-11.888 0 3.46132)
(-1.49907 0 -0.611276)
(37.7797 0 -6.52738)
(-40.7974 0 7.07539)
(69.4236 -2.97421e-19 -11.5416)
(-135.897 0 26.7166)
(53.0397 -2.34877e-17 -14.9587)
(95.0651 1.04886e-16 -16.0416)
(-71.0331 0 15.6955)
(15.7767 5.40043e-19 -4.89288)
(18.0727 0 -4.21427)
(33.025 -3.17499e-19 -4.51678)
(-72.2754 0 14.7922)
(-1.67719 8.06506e-18 -2.12222)
(70.9369 0 -13.3928)
(-24.607 2.8683e-17 6.43053)
(-20.6378 0 3.96067)
(-0.0882135 0 -0.0239657)
(-0.0834697 0 -0.0333205)
(-0.13227 0 -0.06619)
(-0.188626 0 -0.0763774)
(-0.239786 -8.80699e-21 -0.0621262)
(-0.277842 4.06256e-22 -0.043692)
(-0.299426 0 -0.0331156)
(-0.302798 -1.06609e-20 -0.0250823)
(-0.288668 0 -0.00794361)
(-0.263078 9.24548e-21 0.0211392)
(-0.235056 0 0.0537865)
(-0.209758 2.00852e-21 0.0794277)
(-0.185146 0 0.0945124)
(-0.15627 1.81713e-20 0.102379)
(-0.121711 -1.14639e-20 0.106648)
(-0.0843493 2.76959e-20 0.107215)
(-0.0473495 -3.0006e-20 0.102058)
(-0.011701 -3.18316e-20 0.0905391)
(0.022689 0 0.0742809)
(0.0551423 -3.39791e-20 0.0559208)
(0.0838341 -3.27202e-20 0.0376495)
(0.106798 -5.99316e-20 0.0205257)
(0.123173 -2.79809e-20 0.00464088)
(0.133682 0 -0.0102399)
(0.140114 0 -0.0241442)
(0.144351 0 -0.0368045)
(0.147705 -3.4139e-20 -0.0479171)
(0.1508 -3.01535e-20 -0.0573827)
(0.15382 0 -0.0653468)
(0.156662 0 -0.0720394)
(0.158994 2.12175e-20 -0.0776372)
(0.160157 0 -0.0821908)
(0.159418 2.87648e-22 -0.0857227)
(0.156147 -2.28788e-20 -0.0882241)
(0.150251 1.3693e-20 -0.0896928)
(0.141973 0 -0.0899786)
(0.132053 0 -0.0889013)
(0.12113 -2.31618e-20 -0.086157)
(0.110214 0 -0.0816407)
(0.0999545 0 -0.0752904)
(0.0916062 5.78251e-20 -0.0674762)
(0.0856603 -1.30149e-19 -0.0585148)
(0.083232 0 -0.0491366)
(0.083814 -1.38689e-19 -0.0397213)
(0.087869 0 -0.0311082)
(0.0936651 1.19675e-19 -0.0234673)
(0.101653 1.02047e-19 -0.017563)
(0.10953 0 -0.013106)
(0.118833 5.95346e-20 -0.0107123)
(0.127042 -3.704e-20 -0.00953668)
(0.137275 -6.90479e-20 -0.0102264)
(0.146265 -2.4657e-22 -0.0115207)
(0.158636 2.6164e-20 -0.0144295)
(0.169159 -4.48663e-22 -0.0172944)
(0.183733 0 -0.0216374)
(0.19403 -5.80558e-20 -0.0251967)
(0.207883 -5.48098e-20 -0.0300667)
(0.213485 4.57735e-20 -0.0331243)
(0.222503 -3.35426e-20 -0.0372905)
(0.219695 -3.31467e-20 -0.0384764)
(0.222798 -3.05491e-21 -0.040938)
(0.212337 -2.81724e-20 -0.0395947)
(0.213732 5.12607e-20 -0.0405978)
(0.200546 0 -0.0374501)
(0.206308 0 -0.0384547)
(0.193915 7.30318e-20 -0.0349225)
(0.206192 0 -0.0374933)
(0.192915 0 -0.034488)
(0.20962 -5.53684e-20 -0.0392853)
(0.19175 0 -0.0365475)
(0.211514 -1.67085e-20 -0.043018)
(0.187889 -6.06132e-20 -0.0392731)
(0.21335 0 -0.0465354)
(0.187161 -5.21791e-20 -0.0409372)
(0.223769 0 -0.0490673)
(0.199177 0 -0.0419874)
(0.248427 -1.42442e-19 -0.05173)
(0.225639 1.83852e-19 -0.0440782)
(0.281617 7.33448e-22 -0.0556299)
(0.260352 0 -0.048237)
(0.308916 0 -0.0595055)
(0.297814 0 -0.0539075)
(0.300939 7.86327e-20 -0.0594184)
(0.320681 4.5314e-19 -0.0610421)
(0.313163 0 -0.0576327)
(0.245234 2.88747e-18 -0.0578945)
(0.72551 -1.85597e-18 -0.0988973)
(-0.788033 -3.61262e-18 0.0683019)
(3.21076 1.14779e-18 -0.504224)
(-4.13327 2.72293e-18 0.753659)
(5.16711 0 -1.14874)
(-1.20281 0 0.59644)
(-3.91358 8.09024e-18 0.244638)
(11.7989 -1.67005e-17 -1.70328)
(-21.0157 -1.17639e-17 3.32667)
(37.2329 0 -6.66046)
(-44.207 0 9.37534)
(25.5884 1.57957e-17 -7.56642)
(26.7203 -2.75596e-17 -2.2143)
(-65.1983 0 11.3301)
(67.8024 3.65572e-17 -13.0454)
(-85.052 1.49547e-17 17.2083)
(52.0021 0 -12.3085)
(-19.7138 0 5.65506)
(3.07038 0 -2.20968)
(45.7827 0 -7.52299)
(-45.7351 0 7.50271)
(88.1254 2.53909e-17 -13.7134)
(-173.069 0 34.1173)
(68.9519 0 -21.2031)
(106.626 0 -16.6148)
(-82.4888 2.24103e-16 18.9079)
(27.4237 -1.12699e-16 -8.33064)
(19.2906 0 -4.6833)
(37.9599 -9.69774e-18 -4.27785)
(-90.6018 0 18.7148)
(3.74675 7.15759e-18 -4.98456)
(85.8336 0 -15.8871)
(-34.0674 -2.68053e-17 9.36275)
(-25.1067 0 4.72097)
(-0.0807233 7.71056e-21 -0.0630883)
(-0.08266 8.25719e-21 -0.0601044)
(-0.122147 -8.14055e-21 -0.0751572)
(-0.156682 -7.87106e-21 -0.0785171)
(-0.18912 0 -0.0641147)
(-0.216069 7.02155e-21 -0.046729)
(-0.234381 0 -0.038626)
(-0.242425 -9.11505e-21 -0.0357625)
(-0.238009 -6.61144e-21 -0.0235006)
(-0.221628 -8.085e-21 0.00502703)
(-0.198832 1.02373e-21 0.0423321)
(-0.176474 1.95332e-21 0.0741977)
(-0.155626 0 0.0931208)
(-0.131482 0 0.102345)
(-0.100786 1.0808e-20 0.107824)
(-0.0659448 -5.99559e-22 0.110411)
(-0.0312793 1.42948e-21 0.107028)
(0.00143357 1.59454e-21 0.095994)
(0.0327423 0 0.0790342)
(0.06297 0 0.0595275)
(0.0908888 0 0.0402496)
(0.114319 5.37847e-20 0.0223463)
(0.13166 2.39975e-20 0.00560091)
(0.142974 0 -0.0105781)
(0.149851 0 -0.0263279)
(0.154332 3.41613e-20 -0.0412091)
(0.157947 0 -0.0546397)
(0.161396 0 -0.0663001)
(0.164827 0 -0.0762208)
(0.168097 0 -0.0845676)
(0.170917 1.19706e-23 -0.0914607)
(0.172701 0 -0.0968966)
(0.172766 2.90328e-22 -0.100902)
(0.170449 2.15667e-20 -0.103534)
(0.165639 9.40487e-22 -0.104906)
(0.158541 0 -0.104956)
(0.149937 0 -0.103568)
(0.140406 0 -0.100438)
(0.130954 0 -0.0954824)
(0.122071 0 -0.0886211)
(0.11503 0 -0.0802744)
(0.11017 0 -0.0707231)
(0.108763 1.24451e-19 -0.0607377)
(0.110138 1.25843e-19 -0.050611)
(0.115022 0 -0.0412535)
(0.121413 1.09968e-19 -0.032747)
(0.130149 0 -0.0260072)
(0.138502 0 -0.0206392)
(0.148581 -1.11729e-19 -0.0174774)
(0.157209 0 -0.0154946)
(0.16834 3.33118e-20 -0.0156181)
(0.177733 0 -0.0162978)
(0.191222 -4.86363e-20 -0.0189098)
(0.202159 -5.22761e-22 -0.0213618)
(0.218171 0 -0.0256722)
(0.228881 0 -0.0289816)
(0.244532 0 -0.034081)
(0.250411 -8.61937e-20 -0.0370551)
(0.261533 6.31782e-20 -0.041787)
(0.258641 3.25416e-20 -0.0431123)
(0.264132 4.20237e-21 -0.0465511)
(0.253103 5.27139e-20 -0.0455395)
(0.257367 4.65151e-20 -0.0478501)
(0.243144 0 -0.0449608)
(0.252525 0 -0.0473211)
(0.238573 -5.12734e-22 -0.0436339)
(0.255423 0 -0.0474615)
(0.239952 0 -0.0438587)
(0.262433 -5.4478e-20 -0.0500564)
(0.241629 0 -0.0465376)
(0.268563 0 -0.0548681)
(0.241023 5.95409e-20 -0.0502633)
(0.275149 -2.11952e-20 -0.0599043)
(0.243832 0 -0.053164)
(0.290717 0 -0.0639927)
(0.259712 0 -0.0551259)
(0.320782 1.33775e-19 -0.0676231)
(0.290482 0 -0.0573548)
(0.359281 2.12898e-19 -0.071747)
(0.330412 -9.0841e-20 -0.0612535)
(0.390918 0 -0.0755887)
(0.374816 0 -0.0673415)
(0.384959 -7.37877e-20 -0.0756801)
(0.407293 1.81276e-21 -0.0768156)
(0.40119 -5.37811e-19 -0.0733247)
(0.330921 -1.35245e-18 -0.0812692)
(0.869716 -1.74143e-18 -0.108515)
(-0.843442 1.69385e-18 0.0344353)
(3.73779 -1.07616e-18 -0.541934)
(-4.79995 -1.56133e-20 0.850275)
(6.28455 0 -1.426)
(-1.75306 6.367e-18 0.887925)
(-3.93286 0 0.0218046)
(13.4341 0 -1.70665)
(-24.3736 1.10206e-17 3.57227)
(42.8722 0 -7.41244)
(-52.9055 0 11.3366)
(32.8834 0 -10.251)
(28.1639 2.58044e-17 -0.946927)
(-71.2508 0 11.753)
(79.9935 3.44885e-17 -15.0678)
(-103.923 0 21.2351)
(61.7198 0 -15.3596)
(-29.4589 0 8.33792)
(9.4253 0 -4.46959)
(51.8052 0 -7.99068)
(-47.0681 -3.7281e-17 7.04316)
(106.622 2.44593e-17 -15.2907)
(-207.191 5.45154e-17 40.9312)
(82.3106 0 -27.7126)
(110.364 0 -15.2724)
(-87.4404 -4.19783e-16 20.9108)
(40.6229 0 -12.1703)
(18.3205 1.3517e-17 -4.65584)
(42.1216 0 -3.60943)
(-106.838 4.26601e-17 22.2846)
(10.1931 -6.68855e-18 -8.39571)
(97.8941 0 -17.6475)
(-43.4891 -2.48874e-17 12.5765)
(-28.7404 0 5.24887)
(-0.0721383 -7.26132e-21 -0.0946446)
(-0.0816849 -1.52675e-20 -0.0878805)
(-0.119796 7.66804e-21 -0.090259)
(-0.142229 4.60798e-22 -0.0855265)
(-0.161213 -6.48514e-21 -0.0688906)
(-0.177495 0 -0.0503185)
(-0.189795 0 -0.0405098)
(-0.198355 8.58321e-21 -0.038094)
(-0.200772 1.20113e-20 -0.0298109)
(-0.193415 3.3785e-22 -0.00465916)
(-0.176436 -9.63885e-22 0.0337164)
(-0.155684 -1.83916e-21 0.0703665)
(-0.135712 4.61522e-21 0.0931874)
(-0.114023 0 0.103173)
(-0.0860865 0 0.108406)
(-0.0528043 -1.14547e-20 0.111964)
(-0.01917 4.92211e-20 0.11019)
(0.011659 5.19827e-20 0.0997931)
(0.040058 0 0.082059)
(0.0674297 0 0.0610777)
(0.0938095 0 0.0404852)
(0.117458 -1.48519e-21 0.0217785)
(0.136181 -4.38551e-20 0.00447941)
(0.149065 1.91821e-20 -0.0125216)
(0.157116 3.42776e-20 -0.0296646)
(0.162374 -6.27333e-20 -0.0464242)
(0.166639 2.73858e-20 -0.0619206)
(0.17079 2.47482e-20 -0.0755666)
(0.174972 2.25556e-20 -0.0872574)
(0.178971 0 -0.0971035)
(0.182521 -1.88442e-20 -0.105181)
(0.185133 1.66141e-20 -0.111422)
(0.186217 -1.38256e-20 -0.115836)
(0.185075 -2.17351e-20 -0.118524)
(0.181544 -2.69749e-20 -0.119715)
(0.175743 0 -0.119431)
(0.168501 0 -0.117631)
(0.160365 1.66631e-20 -0.114011)
(0.152384 0 -0.108526)
(0.144881 -3.79762e-20 -0.101088)
(0.139146 -4.66906e-20 -0.0921957)
(0.135323 0 -0.0821061)
(0.134858 -2.30878e-19 -0.0716458)
(0.136891 -1.18427e-19 -0.0610017)
(0.142468 0 -0.0511479)
(0.149279 -1.03475e-19 -0.0420306)
(0.158622 -8.67664e-20 -0.0347015)
(0.167272 0 -0.028603)
(0.178011 1.03575e-19 -0.0247917)
(0.186905 -3.27916e-20 -0.0220139)
(0.198875 -3.10322e-20 -0.0215212)
(0.208553 0 -0.0214488)
(0.223161 3.04026e-22 -0.0236241)
(0.234419 -7.77639e-20 -0.0254906)
(0.251915 0 -0.0296622)
(0.262942 0 -0.0326123)
(0.280475 4.85106e-20 -0.0379239)
(0.286525 4.05328e-20 -0.0407682)
(0.29989 -5.90049e-20 -0.0461007)
(0.296821 -3.05899e-20 -0.0475276)
(0.304943 -3.94998e-21 -0.0519926)
(0.293284 -2.46322e-20 -0.0512701)
(0.300763 -8.76064e-20 -0.0549747)
(0.285431 0 -0.0523343)
(0.298848 0 -0.0562207)
(0.283211 -1.27837e-19 -0.0524231)
(0.305128 0 -0.0577593)
(0.287291 0 -0.0536036)
(0.31614 5.11665e-20 -0.0614509)
(0.292169 0 -0.0570828)
(0.326974 -1.89103e-20 -0.0674303)
(0.295231 5.51973e-22 -0.0617361)
(0.338863 1.98983e-20 -0.0738517)
(0.30208 0 -0.0656619)
(0.360226 0 -0.0793628)
(0.322386 0 -0.068448)
(0.396395 1.19895e-19 -0.0840777)
(0.358052 0 -0.0710124)
(0.440958 -9.92767e-20 -0.0888337)
(0.403823 1.69813e-19 -0.0749902)
(0.477851 0 -0.0930876)
(0.455989 0 -0.0816897)
(0.475204 0 -0.0936548)
(0.499578 7.36598e-22 -0.0937235)
(0.496075 5.04184e-19 -0.0902252)
(0.427512 -1.25612e-18 -0.108006)
(1.01131 1.63214e-18 -0.113869)
(-0.858285 1.58528e-18 -0.0163542)
(4.20336 0 -0.55574)
(-5.35574 -1.17354e-18 0.916962)
(7.34858 0 -1.69854)
(-2.35436 -5.96375e-18 1.21739)
(-3.70356 0 -0.475204)
(14.6787 0 -1.55592)
(-27.0671 0 3.59543)
(47.5359 7.11525e-18 -7.86626)
(-60.788 3.12268e-18 13.1313)
(39.9506 0 -13.1474)
(27.9992 -2.423e-17 0.937923)
(-74.0327 -3.28252e-17 11.3056)
(90.7534 -3.227e-17 -16.5612)
(-120.997 -1.32268e-17 25.0013)
(70.0133 0 -18.3557)
(-40.7984 0 11.4194)
(17.0297 0 -7.00237)
(55.4471 0 -7.86121)
(-44.7521 3.48612e-17 5.63883)
(124.936 4.17041e-19 -16.2106)
(-236.625 -1.0236e-16 47.0884)
(92.078 0 -34.3641)
(106.075 0 -12.2942)
(-85.6606 1.96528e-16 21.517)
(54.3672 0 -16.211)
(15.7075 -1.26316e-17 -4.2039)
(46.1041 0 -2.64272)
(-120.411 -7.99327e-17 25.3455)
(16.7192 0 -12.3589)
(106.785 0 -18.5633)
(-51.8354 2.32488e-17 15.8531)
(-31.4659 0 5.51116)
(-0.0618422 0 -0.117882)
(-0.0749457 7.04655e-21 -0.10858)
(-0.113898 0 -0.103235)
(-0.131727 6.54196e-21 -0.0928988)
(-0.144333 1.17963e-20 -0.0743663)
(-0.154775 0 -0.0542416)
(-0.162745 -4.28875e-21 -0.041171)
(-0.170347 0 -0.0356102)
(-0.176543 -5.01072e-22 -0.028404)
(-0.176404 5.86723e-21 -0.00771526)
(-0.165787 0 0.0279857)
(-0.146934 0 0.0666131)
(-0.126199 -4.34092e-21 0.0929733)
(-0.104837 0 0.103916)
(-0.0787297 0 0.108058)
(-0.046741 0 0.111475)
(-0.0132935 -2.25059e-20 0.111066)
(0.017084 -2.37244e-20 0.101772)
(0.0436129 -2.26081e-20 0.0836707)
(0.0680577 0 0.0611506)
(0.0919494 0 0.0388536)
(0.114868 -2.17742e-20 0.0190558)
(0.134711 1.99943e-20 0.00131318)
(0.149595 -1.80413e-20 -0.0160554)
(0.159506 -3.22389e-20 -0.0340477)
(0.166105 5.574e-20 -0.0522404)
(0.171372 -1.41472e-21 -0.0694833)
(0.17647 -2.32756e-20 -0.0848632)
(0.181654 -2.12131e-20 -0.0980976)
(0.186646 0 -0.109248)
(0.19117 0 -0.118373)
(0.194819 -1.56244e-20 -0.125346)
(0.19715 0 -0.130134)
(0.197458 2.04394e-20 -0.132852)
(0.195498 1.31072e-20 -0.133827)
(0.19123 -5.50697e-21 -0.133168)
(0.185506 0 -0.130916)
(0.17886 -1.5668e-20 -0.126764)
(0.172454 -2.44982e-20 -0.120703)
(0.166447 1.65941e-21 -0.112635)
(0.162164 8.60533e-20 -0.103162)
(0.15948 0 -0.0925244)
(0.160039 1.06942e-19 -0.0816327)
(0.162734 0 -0.0705564)
(0.169016 0 -0.060346)
(0.176204 0 -0.0507753)
(0.186159 2.52134e-21 -0.0430388)
(0.195056 0 -0.0363628)
(0.20648 -4.81342e-20 -0.0320445)
(0.215592 6.05396e-20 -0.0285456)
(0.228461 2.91614e-20 -0.0274899)
(0.238378 0 -0.0266442)
(0.254196 2.0924e-20 -0.0283732)
(0.265714 7.21527e-20 -0.0295929)
(0.284811 0 -0.0336244)
(0.296063 0 -0.0361742)
(0.315621 -4.55685e-20 -0.0417443)
(0.32172 -3.68494e-20 -0.0444407)
(0.337526 2.75072e-20 -0.0504467)
(0.334151 2.68112e-20 -0.0519417)
(0.345197 0 -0.0575027)
(0.332777 0 -0.0570032)
(0.34386 -5.33448e-22 -0.0621825)
(0.327248 -5.70753e-20 -0.0597196)
(0.345175 0 -0.0652714)
(0.327623 5.98814e-20 -0.0613219)
(0.355188 0 -0.0683894)
(0.334684 0 -0.0636475)
(0.3706 0 -0.0733998)
(0.343073 0 -0.0680692)
(0.386585 -3.45657e-22 -0.0806472)
(0.350173 1.19961e-22 -0.073616)
(0.404317 -1.89126e-20 -0.0883882)
(0.361533 0 -0.078414)
(0.432127 -3.82831e-20 -0.0952382)
(0.386822 0 -0.0819438)
(0.47514 -1.12425e-19 -0.101134)
(0.428012 1.42134e-19 -0.0849794)
(0.526602 -9.01465e-20 -0.106867)
(0.480326 -7.93043e-20 -0.0893167)
(0.569755 0 -0.111966)
(0.541156 5.09126e-21 -0.0968448)
(0.571753 0 -0.113359)
(0.597359 -3.75798e-19 -0.11171)
(0.597826 4.68908e-19 -0.10849)
(0.534418 1.17674e-18 -0.137847)
(1.15075 0 -0.115618)
(-0.835414 -2.96687e-18 -0.0825463)
(4.61091 0 -0.547121)
(-5.79881 -1.06424e-18 0.95153)
(8.34087 0 -1.96916)
(-2.99031 -5.53465e-18 1.59904)
(-3.15438 0 -0.702282)
(15.5403 -1.37018e-17 -1.25074)
(-29.0401 -9.79192e-18 3.37997)
(51.2904 -6.65846e-18 -8.01685)
(-67.6542 -2.92192e-18 14.7141)
(46.4399 0 -16.1782)
(26.3294 4.52936e-17 3.38985)
(-73.886 6.15589e-17 10.0168)
(100.002 0 -17.4542)
(-135.415 1.23702e-17 28.3544)
(76.7579 0 -21.2425)
(-53.1332 0 14.7675)
(24.9275 -6.0389e-17 -10.5881)
(56.3801 0 -7.11521)
(-39.1233 0 3.22792)
(142.854 -2.17666e-17 -16.3282)
(-259.921 9.65773e-17 52.4507)
(97.7756 -1.8207e-17 -41.0425)
(94.4481 0 -7.08569)
(-78.3312 0 20.8178)
(67.5801 0 -19.9571)
(12.47 0 -3.63997)
(50.425 6.84989e-18 -1.4984)
(-130.805 3.74353e-17 27.8247)
(22.5069 0 -17.0004)
(112.148 0 -18.5701)
(-57.9894 0 18.9643)
(-33.2484 0 5.50182)
(-0.0495239 -5.76256e-21 -0.133123)
(-0.0635941 0 -0.121961)
(-0.102853 -5.65435e-21 -0.112475)
(-0.119197 0 -0.0989544)
(-0.129548 -5.35255e-21 -0.0793076)
(-0.138225 0 -0.0580728)
(-0.144762 4.03092e-21 -0.0417849)
(-0.151518 -5.78174e-21 -0.0319792)
(-0.158936 -8.73079e-21 -0.0232585)
(-0.163304 -4.08341e-22 -0.00646495)
(-0.158471 0 0.0241576)
(-0.142786 0 0.0615308)
(-0.121771 0 0.0903063)
(-0.100007 0 0.102867)
(-0.0755425 0 0.106088)
(-0.0457208 0 0.108555)
(-0.0130539 1.84948e-20 0.108977)
(0.0175337 -1.93536e-20 0.1012)
(0.0435531 2.12428e-20 0.0835922)
(0.0658394 0 0.0600697)
(0.0867191 0 0.0359662)
(0.107562 1.74967e-20 0.014653)
(0.127407 1.60805e-20 -0.00373029)
(0.144009 1.45415e-20 -0.0212016)
(0.156173 0 -0.0395004)
(0.16467 -2.53601e-20 -0.0585935)
(0.171317 -4.41784e-20 -0.0771918)
(0.177529 1.96038e-20 -0.0940258)
(0.183814 0 -0.108568)
(0.189933 0 -0.12081)
(0.195579 0 -0.130825)
(0.20038 1.44762e-20 -0.138447)
(0.204063 0 -0.143586)
(0.205981 0 -0.146326)