/*--------------------------------*- C++ -*----------------------------------*\
| =========                 |                                                 |
| \\      /  F ield         | OpenFOAM: The Open Source CFD Toolbox           |
|  \\    /   O peration     | Version:  2412                                  |
|   \\  /    A nd           | Website:  www.openfoam.com                      |
|    \\/     M anipulation  |                                                 |
\*---------------------------------------------------------------------------*/
FoamFile
{
    version     2.0;
    format      ascii;
    arch        "LSB;label=32;scalar=64";
    class       surfaceScalarField;
    location    "1.765";
    object      phi_0;
}
// * * * * * * * * * * * * * * * * * * * * * * * * * * * * * * * * * * * * * //

dimensions      [0 3 -1 0 0 0 0];

oriented        oriented;

internalField   nonuniform List<scalar> 
24930
(
0.0179579
0.0127557
-0.0307163
0.0105962
0.00736173
0.00694735
0.0036488
0.00517228
0.00177508
0.00420072
0.000971555
0.0035781
0.000622612
0.00313238
0.000445723
0.00279301
0.000339361
0.00252395
0.000269067
0.00230412
0.000219826
0.00212038
0.000183734
0.00196401
0.000156368
0.00182896
0.000135051
0.00171089
0.000118077
0.00160658
0.000104312
0.00151361
9.2975e-05
0.0014301
8.35095e-05
0.00135459
7.55136e-05
0.00128591
6.8689e-05
0.0012231
6.28109e-05
0.0011654
5.77064e-05
0.00111216
5.32412e-05
0.00106286
4.93095e-05
0.00101704
4.5827e-05
0.000974315
4.27255e-05
0.00093437
3.995e-05
0.000896919
3.7455e-05
0.00086172
3.52029e-05
0.000828562
3.31627e-05
0.000797257
3.13079e-05
0.000767644
2.96165e-05
0.000739577
2.80698e-05
0.000712929
2.66515e-05
0.000687583
2.5348e-05
0.000663438
2.41472e-05
0.000640401
2.30391e-05
0.000618387
2.20145e-05
0.000597321
2.1066e-05
0.000577135
2.01861e-05
0.000557765
1.93697e-05
0.000539153
1.86104e-05
0.000521246
1.79049e-05
0.000503996
1.72474e-05
0.000487358
1.66364e-05
0.000471289
1.60659e-05
0.00045575
1.55366e-05
0.000440707
1.50413e-05
0.000426121
1.45836e-05
0.000411966
1.41541e-05
0.000398205
1.37599e-05
0.000384815
1.33885e-05
0.000371763
1.30518e-05
0.000359031
1.27319e-05
0.000346583
1.2448e-05
0.000334409
1.21745e-05
0.000322469
1.19401e-05
0.000310761
1.17083e-05
0.000299241
1.1521e-05
0.000287915
1.13265e-05
0.00027673
1.11848e-05
0.000265707
1.10231e-05
0.000254781
1.09264e-05
0.000243988
1.07925e-05
0.000233246
1.07414e-05
0.000222616
1.06301e-05
0.00021199
1.0626e-05
0.00020146
1.05301e-05
0.000190885
1.05746e-05
0.0001804
1.0485e-05
0.000169821
1.05799e-05
0.000159337
1.04841e-05
0.000148706
1.06312e-05
0.000138193
1.05124e-05
0.00012748
1.0713e-05
0.00011693
1.05494e-05
0.000106125
1.08046e-05
9.55566e-05
1.05684e-05
8.46779e-05
1.08783e-05
7.41424e-05
1.05352e-05
6.3244e-05
1.08981e-05
5.28322e-05
1.04115e-05
4.20171e-05
1.08148e-05
3.18479e-05
1.01693e-05
2.13096e-05
1.05377e-05
1.14305e-05
9.87847e-06
1.68271e-06
9.74715e-06
-8.49586e-06
1.01786e-05
-1.55394e-05
7.04429e-06
-2.84955e-05
1.2957e-05
-3.11884e-05
2.69413e-06
-4.01892e-05
8.99978e-06
-5.80819e-05
1.78892e-05
-3.7967e-05
-2.01164e-05
-9.58422e-05
5.78763e-05
-3.05092e-05
-6.53331e-05
-0.000126257
9.57517e-05
-6.01406e-05
-6.61203e-05
-4.93973e-05
-1.07532e-05
-0.000218292
0.0001689
1.92526e-05
-0.000237551
-0.000328553
0.000347804
-7.38776e-05
-0.000254677
-0.000248051
0.000174163
-0.000251077
3.03126e-06
-9.37737e-05
-0.000157314
-0.000328601
0.000234818
5.68588e-05
-0.000385465
-0.000819609
0.000876474
-0.00010552
-0.000714088
-0.000389344
0.000283804
-0.000918444
0.00052912
6.51767e-05
-0.000983618
7.77898e-05
-1.2657e-05
0.00018357
-0.000105769
-0.000544758
0.000728324
-3.8686e-05
-0.000506076
0.000325401
-0.000364089
-0.000319522
0.000644931
-2.37546e-05
-0.000295765
-0.000284871
0.033663
0.0163229
-0.0372302
0.0277265
0.0132982
0.0221752
0.00920002
0.0179028
0.00604749
0.0148582
0.00401612
0.0126989
0.0027819
0.0111127
0.00203192
0.00989635
0.00155575
0.00892964
0.00123578
0.00813969
0.00100977
0.0074798
0.000843631
0.00691866
0.000717503
0.00643452
0.000619192
0.00601171
0.000540891
0.00563864
0.000477389
0.00530654
0.000425088
0.00500862
0.000381433
0.00473958
0.000344568
0.00449516
0.000313118
0.00427194
0.000286041
0.00406711
0.00026254
0.00387837
0.000241994
0.00370378
0.000223912
0.00354171
0.000207906
0.00339079
0.000193659
0.00324983
0.000180917
0.00311782
0.000169469
0.00299389
0.000159142
0.00287727
0.000149791
0.00276729
0.000141295
0.00266336
0.000133551
0.00256497
0.000126472
0.00247164
0.000119984
0.00238297
0.000114024
0.00229858
0.000108536
0.00221815
0.000103473
0.00214138
9.87927e-05
0.00206798
9.44611e-05
0.00199772
9.04448e-05
0.00193037
8.67181e-05
0.00186573
8.32538e-05
0.00180359
8.00341e-05
0.0017438
7.70353e-05
0.00168618
7.42466e-05
0.0016306
7.16453e-05
0.0015769
6.92278e-05
0.00152497
6.69701e-05
0.00147467
6.48767e-05
0.0014259
6.29191e-05
0.00137855
6.11126e-05
0.00133252
5.94202e-05
0.0012877
5.78712e-05
0.00124401
5.64155e-05
0.00120136
5.51013e-05
0.00115967
5.38588e-05
0.00111885
5.27624e-05
0.00107885
5.17135e-05
0.00103955
5.08224e-05
0.00100093
4.99494e-05
0.000962858
4.92541e-05
0.000925341
4.85394e-05
0.000888234
4.80336e-05
0.000851566
4.746e-05
0.000815166
4.71417e-05
0.000779105
4.66903e-05
0.000743171
4.65599e-05
0.000707494
4.62069e-05
0.000671804
4.62641e-05
0.000636312
4.5978e-05
0.00060067
4.62216e-05
0.000565195
4.59596e-05
0.000529441
4.63855e-05
0.000493864
4.6089e-05
0.000457888
4.66891e-05
0.000422157
4.628e-05
0.000385918
4.70431e-05
0.000350067
4.64192e-05
0.000313615
4.73294e-05
0.000277792
4.63571e-05
0.000241289
4.73999e-05
0.000205786
4.59145e-05
0.000169533
4.7067e-05
0.000134778
4.49236e-05
9.93094e-05
4.60058e-05
6.55872e-05
4.36e-05
3.23967e-05
4.29371e-05
-2.25375e-06
4.48287e-05
-2.59568e-05
3.07467e-05
-7.20241e-05
5.90242e-05
-7.60754e-05
6.74417e-06
-0.00011947
5.23943e-05
-0.000157356
5.57768e-05
-0.000120229
-5.72464e-05
-0.000277872
0.000215521
-9.49686e-05
-0.000248238
-0.000411002
0.000411786
-0.000156929
-0.000320187
-0.000202544
3.48659e-05
-0.000592804
0.000559165
4.10992e-05
-0.00087146
-0.000961974
0.00135088
-0.000231246
-0.000985407
-0.000864376
0.00080729
-0.000722223
-0.000139131
-0.000392984
-0.000486558
-0.000909363
0.000751198
0.000131141
-0.00142599
-0.00233027
0.00333787
-0.000284053
-0.00276031
-0.00148256
0.00148231
-0.00264945
0.00169602
0.000293114
-0.00392618
0.000223487
5.69897e-05
0.000500763
-0.000383046
-0.00155164
0.00278072
2.37158e-05
-0.00208144
0.000864996
-0.00120537
-0.000996953
0.00250688
7.18984e-05
-0.00136463
-0.00114271
0.0414311
0.0160203
-0.0411285
0.0391393
0.01559
0.0352088
0.0131305
0.030923
0.0103333
0.0270094
0.00792964
0.023722
0.00606932
0.0210491
0.00470481
0.0188817
0.00372316
0.0171051
0.00301235
0.0156268
0.00248809
0.0143778
0.00209262
0.0133079
0.00178745
0.0123801
0.00154699
0.011567
0.00135399
0.0108478
0.00119658
0.0102065
0.00106639
0.00963058
0.000957369
0.00911008
0.000865078
0.00863702
0.000786188
0.0082049
0.000718167
0.00780839
0.000659062
0.00744305
0.00060734
0.00710518
0.000561793
0.00679165
0.00052145
0.00649979
0.000485529
0.00622732
0.000453392
0.00597228
0.000424514
0.00573297
0.00039846
0.00550791
0.000374867
0.00529578
0.000353429
0.00509545
0.00033389
0.00490589
0.00031603
0.00472622
0.000299661
0.00455563
0.000284624
0.00439339
0.000270779
0.00423886
0.000258007
0.00409145
0.000246202
0.00395064
0.000235276
0.00381593
0.000225147
0.0036869
0.000215747
0.00356314
0.00020701
0.00344428
0.000198888
0.00332999
0.000191325
0.00321994
0.000184288
0.00311385
0.000177727
0.00301145
0.000171624
0.00291249
0.000165928
0.00281672
0.000160638
0.00272394
0.000155698
0.00263393
0.000151126
0.00254649
0.000146854
0.00246143
0.000142926
0.0023786
0.00013925
0.0022978
0.000135905
0.00221889
0.000132768
0.00214169
0.000129963
0.00206609
0.000127317
0.00199189
0.000125016
0.00191903
0.000122818
0.00184728
0.000120995
0.00177662
0.000119206
0.00170681
0.000117841
0.00163785
0.000116422
0.00156949
0.000115505
0.00150176
0.000114416
0.00143438
0.00011394
0.00136746
0.000113131
0.00130063
0.000113088
0.00123412
0.000112492
0.00116747
0.00011287
0.00110103
0.000112397
0.00103424
0.000113173
0.000967636
0.000112697
0.000900489
0.000113836
0.00083358
0.000113189
0.000765976
0.000114646
0.000698794
0.0001136
0.000630804
0.000115319
0.000563591
0.000113569
0.000495483
0.000115507
0.000428751
0.000112646
0.000361034
0.000114783
0.000295585
0.000110372
0.000229147
0.000112443
0.000165598
0.000107148
0.00010296
0.000105575
3.80834e-05
0.000109705
-7.36157e-06
7.61912e-05
-9.42011e-05
0.000145864
-0.000101481
1.4024e-05
-0.000190292
0.000141204
-0.000245757
0.000111242
-0.000202248
-0.000100758
-0.000461293
0.000474568
-0.000163314
-0.000546219
-0.000725015
0.000973488
-0.000255036
-0.000790162
-0.000403459
0.000183287
-0.000966198
0.00112191
6.80439e-05
-0.00190571
-0.00163084
0.00304976
-0.000396883
-0.00221937
-0.00160537
0.00201577
-0.00124049
-0.000504008
-0.000804742
-0.000922314
-0.00151886
0.00146531
0.000217831
-0.00316269
-0.00383961
0.0073953
-0.000415489
-0.00618444
-0.00291137
0.00397819
-0.0044082
0.00319285
0.000650347
-0.00898473
0.000335199
0.000372133
0.000840101
-0.000887949
-0.00254262
0.00616343
0.000218293
-0.00484235
0.00134309
-0.00233017
-0.00174194
0.00559191
0.000338059
-0.00344463
-0.00260167
0.0458926
0.0147214
-0.0445937
0.0459737
0.0155089
0.044393
0.0147112
0.0416683
0.0130581
0.0384244
0.0111735
0.0351201
0.00937366
0.0320226
0.00780234
0.029246
0.0064997
0.0268092
0.0054492
0.0246859
0.00461136
0.022835
0.00394349
0.0212146
0.00340784
0.0197875
0.00297409
0.0185225
0.00261901
0.017394
0.0023251
0.0163812
0.00207925
0.015467
0.00187155
0.0146376
0.0016945
0.0138815
0.0015423
0.0131892
0.00141048
0.0125527
0.0012955
0.0119655
0.00119459
0.0114218
0.00110549
0.0109169
0.0010264
0.0104465
0.00095586
0.0100073
0.000892656
0.00959602
0.000835789
0.00921006
0.000784429
0.00884706
0.000737877
0.00850495
0.000695548
0.0081819
0.000656941
0.00787631
0.000621632
0.00758672
0.000589257
0.00731185
0.000559502
0.00705053
0.000532097
0.00680173
0.000506807
0.00656451
0.000483428
0.006338
0.000461782
0.00612144
0.00044171
0.00591411
0.000423078
0.00571536
0.000405757
0.00552459
0.000389651
0.00534126
0.000374651
0.00516485
0.000360688
0.0049949
0.000347669
0.00483097
0.00033555
0.00467265
0.000324241
0.00451956
0.000313728
0.00437134
0.000303914
0.00422765
0.000294815
0.00408818
0.000286322
0.00395261
0.000278489
0.00382069
0.000271176
0.0036921
0.00026449
0.00356663
0.000258244
0.00344398
0.000252613
0.00332396
0.00024734
0.00320628
0.000242694
0.00309078
0.000238313
0.00297719
0.000234595
0.00286536
0.000231031
0.002755
0.000228198
0.00264604
0.000225382
0.00253814
0.000223409
0.00243129
0.000221269
0.00232509
0.000220135
0.00221964
0.000218583
0.00211446
0.000218265
0.00200977
0.000217187
0.00190499
0.00021765
0.0018005
0.000216888
0.00169559
0.000218077
0.00159088
0.000217408
0.00148547
0.000219243
0.0013803
0.000218366
0.0012742
0.000220742
0.00116855
0.000219251
0.00106183
0.00022204
0.000956023
0.00021937
0.00084905
0.000222479
0.000743841
0.000217853
0.000637353
0.000221271
0.000533953
0.000213771
0.000429236
0.00021716
0.00032868
0.000207703
0.00022935
0.000204904
0.000127231
0.000211824
5.17766e-05
0.000151645
-8.21466e-05
0.000279787
-9.66273e-05
2.85046e-05
-0.000241517
0.000286093
-0.000315468
0.000185192
-0.000275477
-0.000140751
-0.000640156
0.000839249
-0.000230838
-0.000955538
-0.00105828
0.00180093
-0.000354986
-0.00149345
-0.000650236
0.000478536
-0.00133871
0.00181038
0.000100752
-0.00334517
-0.00232874
0.00547925
-0.000563353
-0.00398475
-0.00246496
0.00391738
-0.00181658
-0.00115239
-0.00134354
-0.00139536
-0.00216628
0.00228805
0.000320143
-0.00564914
-0.00531307
0.0130285
-0.000474307
-0.0110232
-0.0046744
0.00817829
-0.0061634
0.00468185
0.00113389
-0.016282
0.000401025
0.00110499
0.00122625
-0.00171318
-0.00348848
0.0108782
0.000572537
-0.00890337
0.00175113
-0.00350877
-0.00252788
0.00987092
0.00080727
-0.00677979
-0.00467453
0.0493575
0.0135274
-0.0481635
0.0503201
0.0145464
0.0503367
0.0146946
0.0493131
0.0140816
0.0474673
0.0130193
0.045092
0.011749
0.0424589
0.0104355
0.0397743
0.0091843
0.0371729
0.00805057
0.0347291
0.00705514
0.032475
0.00619756
0.0304165
0.00546634
0.0285451
0.00484547
0.0268459
0.00431827
0.0253016
0.00386936
0.0238955
0.00348543
0.0226117
0.00315534
0.0214363
0.00286994
0.0203568
0.00262178
0.0193625
0.0024048
0.0184439
0.00221407
0.0175929
0.00204556
0.0168025
0.00189597
0.0160663
0.00176256
0.0153791
0.0016431
0.0147361
0.00153569
0.0141331
0.00143877
0.0135665
0.00135102
0.0130331
0.0012713
0.01253
0.00119868
0.0120546
0.00113233
0.0116047
0.00107156
0.0111782
0.00101576
0.0107732
0.000964427
0.0103883
0.000917095
0.0100217
0.000873379
0.00967219
0.000832931
0.00933851
0.000795454
0.00901954
0.000760678
0.00871424
0.000728376
0.00842166
0.000698332
0.00814093
0.000670376
0.00787125
0.000644329
0.00761187
0.000620067
0.00736209
0.000597436
0.00712128
0.000576354
0.00688884
0.000556677
0.0066642
0.000538365
0.00644684
0.00052127
0.00623625
0.0005054
0.00603198
0.000490589
0.00583357
0.000476901
0.00564061
0.000464133
0.00545268
0.000452421
0.00526943
0.000441499
0.00509044
0.000431603
0.00491541
0.000422369
0.00474394
0.000414163
0.00457578
0.000406479
0.00441051
0.000399861
0.00424794
0.000393603
0.00408765
0.000388497
0.00392948
0.00038355
0.00377298
0.000379905
0.00361809
0.000376156
0.00346429
0.000373932
0.00331164
0.000371242
0.00315951
0.000370392
0.00300811
0.000368581
0.00285673
0.000369038
0.00270576
0.000367858
0.00255431
0.00036952
0.0024031
0.000368618
0.00225101
0.000371334
0.00209915
0.000370233
0.00194608
0.000373811
0.00179347
0.000371853
0.00163945
0.000376059
0.00148649
0.000372328
0.00133199
0.000376984
0.00117966
0.000370183
0.00102564
0.000375283
0.00087561
0.000363804
0.000723817
0.000368952
0.000577612
0.000353907
0.000432817
0.000349698
0.000284998
0.000359643
0.000170908
0.000265735
-2.04079e-05
0.000471104
-4.52358e-05
5.33321e-05
-0.000259583
0.000500439
-0.000353917
0.000279526
-0.000329547
-0.000165123
-0.000803816
0.00131352
-0.000289506
-0.00146985
-0.00140061
0.00291204
-0.000453022
-0.00244104
-0.000940571
0.000966085
-0.0017048
0.00257461
0.00013859
-0.00518857
-0.00303963
0.00865747
-0.000720932
-0.00630346
-0.0034346
0.00663104
-0.00245291
-0.00213407
-0.0020286
-0.00181968
-0.00285579
0.00311524
0.000431757
-0.00893671
-0.00670325
0.0201635
-0.000427107
-0.0172994
-0.00674625
0.0144974
-0.00788079
0.00581639
0.00170738
-0.0258702
0.000417034
0.00239533
0.00168191
-0.00297805
-0.00435359
0.0169137
0.001102
-0.014359
0.00208736
-0.00449412
-0.00332019
0.0152785
0.0014992
-0.0115992
-0.00736076
0.0528144
0.0126294
-0.0519164
0.0538422
0.0135186
0.0545249
0.0140118
0.0545927
0.0140139
0.0539928
0.0136191
0.0527949
0.0129469
0.0511282
0.0121022
0.0491392
0.0111733
0.0469626
0.0102271
0.044709
0.00930877
0.0424605
0.00844608
0.0402731
0.00765374
0.0381813
0.00693722
0.0362037
0.00629593
0.0343475
0.00572559
0.0326128
0.00522007
0.0309957
0.0047725
0.0294895
0.00437607
0.0280869
0.00402442
0.0267799
0.0037118
0.0255609
0.00343314
0.0244224
0.00318402
0.0233578
0.00296065
0.0223606
0.00275974
0.0214252
0.0025785
0.0205464
0.00241452
0.0197194
0.00226574
0.0189401
0.00213037
0.0182045
0.00200689
0.0175092
0.00189398
0.016851
0.00179049
0.0162272
0.00169542
0.015635
0.00160792
0.0150722
0.00152723
0.0145366
0.00145269
0.0140263
0.0013837
0.0135395
0.00131978
0.0130745
0.00126046
0.0126298
0.00120534
0.0122041
0.00115408
0.0117961
0.00110634
0.0114046
0.00106188
0.0110285
0.00102041
0.0106668
0.000981748
0.0103186
0.000945654
0.00998294
0.000911995
0.00965906
0.000880559
0.00934615
0.000851269
0.0090435
0.000823914
0.00875041
0.000798484
0.00846625
0.000774745
0.00819039
0.000752765
0.00792226
0.000732264
0.00766127
0.00071341
0.00740693
0.000695842
0.00715867
0.000679859
0.00691607
0.000664974
0.00667857
0.000651662
0.0064458
0.000639247
0.00621722
0.000628442
0.00599252
0.000618306
0.00577113
0.000609886
0.00555283
0.000601856
0.005337
0.000595735
0.00512351
0.000589641
0.00491169
0.000585751
0.00470154
0.00058139
0.00449228
0.000579653
0.0042841
0.000576762
0.00407607
0.000577067
0.00386865
0.000575281
0.00366071
0.000577463
0.00345306
0.000576263
0.00324432
0.000580079
0.00303579
0.000578755
0.00282571
0.000583891
0.0026161
0.000581461
0.00240463
0.000587535
0.00219434
0.000582614
0.001982
0.000589325
0.00177225
0.000579931
0.00156027
0.00058726
0.00135322
0.000570858
0.00114382
0.000578349
0.000941574
0.000556151
0.000740755
0.000550516
0.00053706
0.000563338
0.000373885
0.000428909
0.000119588
0.000725401
6.7693e-05
0.000105226
-0.000226506
0.000794637
-0.000343636
0.000396655
-0.000350258
-0.000158504
-0.000937464
0.00190073
-0.000327607
-0.00207971
-0.00173761
0.00432205
-0.000541381
-0.00363727
-0.00126838
0.00169309
-0.00205754
0.00336377
0.000180066
-0.00742618
-0.0037436
0.0125811
-0.000857014
-0.00919004
-0.00449518
0.0102692
-0.00314629
-0.00348296
-0.00287696
-0.00208903
-0.00359371
0.003832
0.00053366
-0.0130641
-0.0079669
0.0286641
-0.000234434
-0.0250318
-0.0090606
0.0233236
-0.00953606
0.00629185
0.00229711
-0.0377033
0.000382177
0.00431026
0.00222414
-0.00482002
-0.00510123
0.024239
0.00182629
-0.0212865
0.0023635
-0.00503133
-0.0040823
0.0217243
0.00241616
-0.0180977
-0.0106538
0.056533
0.0119426
-0.0558462
0.0573862
0.0126654
0.0581822
0.0132158
0.0587081
0.013488
0.0588419
0.0134853
0.0585378
0.0132511
0.0578052
0.0128348
0.056692
0.0122865
0.0552667
0.0116524
0.0536049
0.0109706
0.0517798
0.0102711
0.0498569
0.00957665
0.0478907
0.00890341
0.0459242
0.0082624
0.0439895
0.00766036
0.0421089
0.00710068
0.0402971
0.00658431
0.0385627
0.00611045
0.03691
0.00567717
0.0353399
0.00528187
0.0338514
0.00492161
0.0324421
0.00459338
0.0311085
0.00429423
0.0298469
0.00402135
0.0286533
0.00377216
0.0275235
0.0035443
0.0264536
0.00333563
0.0254398
0.00314423
0.0244783
0.00296839
0.0235657
0.00280659
0.0226987
0.00265746
0.0218743
0.00251979
0.0210897
0.00239252
0.0203423
0.00227469
0.0196295
0.00216544
0.0189492
0.00206403
0.0182992
0.00196978
0.0176776
0.0018821
0.0170825
0.00180043
0.0165122
0.00172431
0.0159653
0.0016533
0.0154401
0.00158703
0.0149354
0.00152512
0.0144498
0.00146731
0.0139822
0.00141326
0.0135314
0.00136278
0.0130964
0.00131559
0.0126761
0.00127155
0.0122697
0.00123037
0.0118761
0.00119204
0.0114946
0.00115622
0.0111244
0.001123
0.0107647
0.001092
0.0104146
0.00106342
0.0100737
0.00103679
0.00974107
0.00101248
0.00941619
0.00098986
0.00909832
0.000969527
0.00878697
0.000950604
0.00848141
0.000934007
0.0081812
0.000918507
0.00788563
0.000905461
0.00759434
0.000893141
0.00730656
0.00088352
0.00702206
0.000874139
0.00673997
0.00086784
0.00646024
0.000861116
0.00618188
0.000858019
0.00590505
0.000853587
0.00562859
0.000853533
0.00535299
0.000850883
0.00507682
0.000853625
0.00480106
0.000852031
0.00452393
0.000857208
0.00424701
0.000855666
0.00396809
0.000862811
0.00368963
0.000859927
0.0034087
0.000868461
0.00312906
0.000862255
0.00284668
0.000871702
0.0025673
0.000859313
0.00228494
0.000869612
0.00200849
0.000847313
0.00172891
0.000857929
0.00145817
0.000826884
0.00118865
0.000820039
0.000916812
0.000835172
0.000691719
0.000654002
0.000362775
0.00105435
0.000267066
0.000200935
-0.000119448
0.00118115
-0.000260569
0.000537775
-0.000318407
-0.000100667
-0.00102106
0.00260338
-0.000328508
-0.00277226
-0.00204976
0.0060433
-0.00060689
-0.00508013
-0.00162137
0.00270757
-0.00238835
0.00413074
0.00022309
-0.0100376
-0.00441953
0.0172238
-0.000956266
-0.0126533
-0.00561567
0.0149286
-0.0038862
-0.00521243
-0.00389682
-0.00207841
-0.00438884
0.00432401
0.000589681
-0.0180426
-0.00908085
0.0383346
0.000159425
-0.0342721
-0.0114977
0.0349808
-0.0111147
0.00590877
0.00279129
-0.0516093
0.000296403
0.00680514
0.00285671
-0.00738033
-0.00570171
0.0327974
0.00276787
-0.0297561
0.00261384
-0.00487729
-0.00477977
0.0291179
0.00353625
-0.0264137
-0.0145541
0.0605367
0.0113796
-0.0599737
0.0612208
0.0119812
0.0619351
0.0125015
0.0625567
0.0128663
0.0629881
0.0130539
0.0631653
0.0130739
0.0630527
0.0129474
0.0626399
0.0126993
0.0619371
0.0123551
0.0609691
0.0119386
0.0597703
0.01147
0.0583804
0.0109666
0.0568406
0.0104432
0.055191
0.00991197
0.0534686
0.00938282
0.0517056
0.00886364
0.0499295
0.00836047
0.0481622
0.00787772
0.046421
0.00741836
0.0447188
0.00698415
0.0430645
0.00657584
0.0414645
0.00619343
0.0399224
0.00583634
0.0384401
0.00550363
0.0370182
0.00519408
0.0356562
0.00490634
0.0343528
0.004639
0.0331064
0.00439064
0.0319149
0.00415989
0.0307761
0.00394542
0.0296876
0.00374599
0.028647
0.00356042
0.0276518
0.00338765
0.0266999
0.00322667
0.0257887
0.00307658
0.0249162
0.00293653
0.0240803
0.00280577
0.0232787
0.0026836
0.0225098
0.00256939
0.0217715
0.00246257
0.0210622
0.0023626
0.0203802
0.00226903
0.0197239
0.00218139
0.0190919
0.00209934
0.0184827
0.00202247
0.017895
0.00195051
0.0173274
0.0018831
0.0167789
0.00182007
0.0162482
0.00176105
0.0157343
0.00170599
0.015236
0.00165448
0.0147524
0.0016066
0.0142825
0.00156187
0.0138254
0.00152054
0.0133802
0.001482
0.012946
0.00144671
0.012522
0.00141386
0.0121073
0.00138422
0.0117012
0.00135664
0.0113029
0.00133231
0.0109118
0.00130964
0.0105269
0.00129037
0.0101477
0.00127228
0.00977337
0.0012579
0.00940344
0.00124406
0.00903685
0.00123443
0.0086735
0.00122447
0.0083121
0.00121942
0.00795282
0.00121286
0.00759418
0.00121218
0.00723673
0.00120833
0.00687869
0.00121167
0.00652116
0.00120956
0.00616194
0.00121643
0.00580291
0.00121469
0.0054413
0.00122442
0.00508008
0.00122115
0.00471562
0.00123292
0.00435248
0.00122539
0.00398569
0.00123849
0.00362225
0.00122275
0.00325483
0.00123703
0.00289428
0.00120786
0.00252955
0.00122266
0.00217546
0.00118098
0.00182204
0.00117345
0.00146733
0.00118988
0.00116478
0.000956547
0.000746951
0.00147218
0.000592999
0.000354886
0.000100784
0.00167336
-6.88276e-05
0.000707385
-0.000208852
3.93535e-05
-0.00102776
0.00342229
-0.000269103
-0.00353092
-0.00231123
0.00808542
-0.000629113
-0.00676224
-0.00197899
0.00405745
-0.00268537
0.00483713
0.00026629
-0.0129893
-0.00504661
0.0225367
-0.0010016
-0.0166983
-0.00675227
0.0206793
-0.00465111
-0.00731359
-0.00507966
-0.00164986
-0.00524961
0.00449395
0.000544415
-0.0238367
-0.0100522
0.0489312
0.000812731
-0.0451371
-0.0138818
0.0496753
-0.0125989
0.00462585
0.00305716
-0.0672653
0.000159503
0.00970279
0.00356049
-0.0107813
-0.00613607
0.042494
0.00395293
-0.0398451
0.00290196
-0.00382633
-0.00537976
0.0373996
0.00481038
-0.0366038
-0.0190859
0.0648192
0.0108953
-0.0643349
0.0653844
0.011416
0.0659918
0.0118941
0.0665762
0.0122819
0.0670751
0.012555
0.06744
0.0127091
0.0676353
0.0127521
0.0676371
0.0126974
0.0674323
0.0125599
0.0670168
0.0123542
0.0663942
0.0120926
0.065575
0.0117858
0.0645751
0.0114431
0.0634144
0.0110727
0.0621155
0.0106817
0.0607026
0.0102765
0.0592
0.00986309
0.0576311
0.00944663
0.0560176
0.00903183
0.054379
0.00862274
0.0527322
0.00822273
0.0510911
0.00783447
0.0494675
0.00745999
0.0478704
0.00710072
0.0463069
0.00675758
0.0447823
0.00643103
0.0433001
0.00612119
0.0418628
0.0058279
0.0404719
0.0055508
0.039128
0.00528936
0.037831
0.00504296
0.0365805
0.00481093
0.0353756
0.00459255
0.0342152
0.0043871
0.033098
0.00419386
0.0320224
0.00401213
0.0309869
0.00384123
0.02999
0.00368054
0.0290299
0.00352943
0.0281052
0.00338734
0.027214
0.00325372
0.026355
0.00312809
0.0255264
0.00300995
0.0247268
0.00289892
0.0239547
0.00279455
0.0232087
0.00269653
0.0224874
0.00260444
0.0217893
0.00251809
0.0211134
0.00243703
0.0204582
0.0023612
0.0198225
0.00229011
0.0192053
0.00222387
0.0186053
0.00216187
0.0180214
0.00210443
0.0174526
0.00205079
0.0168977
0.00200154
0.016356
0.00195564
0.0158261
0.00191406
0.0153074
0.00187538
0.0147986
0.00184106
0.0142992
0.00180912
0.0138078
0.00178176
0.0133239
0.00175615
0.0128463
0.00173552
0.0123745
0.00171584
0.0119072
0.00170176
0.0114441
0.00168754
0.0109837
0.00167982
0.0105261
0.00167043
0.0100695
0.0016688
0.00961449
0.00166336
0.0091588
0.00166737
0.00870376
0.0016646
0.00824659
0.00167359
0.00778957
0.00167171
0.0073292
0.0016848
0.00686907
0.00168127
0.00640467
0.00169732
0.00594154
0.00168852
0.0054735
0.00170653
0.00500909
0.00168716
0.00453931
0.0017068
0.00407734
0.00166983
0.00360972
0.00169028
0.0031546
0.00163609
0.00269919
0.00162887
0.00224395
0.00164512
0.00184527
0.00135523
0.00132185
0.00199559
0.00109057
0.000586174
0.000489701
0.00227423
0.000242353
0.000954732
2.18781e-06
0.000279521
-0.000921727
0.00434621
-0.000117162
-0.00433549
-0.00248839
0.0104567
-0.000577677
-0.00867295
-0.00231009
0.00578986
-0.00293066
0.0054577
0.000311691
-0.0162317
-0.00560522
0.0284536
-0.000975134
-0.0213284
-0.00784988
0.027554
-0.00540591
-0.00975756
-0.00639237
-0.000663414
-0.006178
0.00427957
0.000322232
-0.0303369
-0.010924
0.0601774
0.00171327
-0.0577744
-0.0159894
0.067378
-0.0139434
0.00257991
0.00298183
-0.0841906
-3.2854e-05
0.0127175
0.00428521
-0.0150994
-0.00639935
0.0531785
0.00541132
-0.0516557
0.00332457
-0.00173957
-0.00584393
0.0465681
0.00616924
-0.048617
-0.0243102
0.0693895
0.010468
-0.0689622
0.0698728
0.0109327
0.070393
0.0113738
0.0709146
0.0117603
0.0713978
0.0120718
0.0718088
0.0122981
0.0721216
0.0124392
0.0723169
0.0125021
0.0723804
0.0124964
0.0723022
0.0124323
0.0720754
0.0123194
0.0716962
0.012165
0.0711639
0.0119754
0.0704809
0.0117557
0.0696526
0.01151
0.0686875
0.0112416
0.0675969
0.0109537
0.066394
0.0106495
0.0650939
0.010332
0.0637124
0.0100043
0.0622654
0.0096697
0.0607686
0.00933124
0.0592368
0.00899185
0.0576833
0.00865421
0.0561202
0.00832069
0.0545579
0.00799332
0.0530053
0.00767379
0.0514698
0.00736343
0.0499574
0.00706325
0.0484728
0.00677395
0.0470197
0.00649602
0.0456009
0.00622971
0.0442184
0.00597511
0.0428733
0.00573215
0.0415665
0.00550067
0.0402982
0.00528043
0.0390683
0.00507113
0.0378764
0.00487243
0.0367219
0.00468395
0.0356039
0.00450531
0.0345216
0.00433609
0.0334737
0.00417594
0.0324592
0.00402444
0.0314769
0.00388125
0.0305255
0.00374596
0.0296037
0.00361832
0.0287102
0.00349786
0.0278439
0.00338446
0.0270033
0.00327761
0.0261872
0.00317731
0.0253943
0.00308297
0.0246234
0.00299478
0.0238732
0.00291201
0.0231426
0.00283509
0.0224303
0.00276309
0.0217351
0.00269676
0.0210559
0.00263485
0.0203914
0.00257855
0.0197406
0.00252611
0.0191023
0.00247938
0.0184756
0.00243588
0.017859
0.00239836
0.0172518
0.00236331
0.0166526
0.00233477
0.0160607
0.0023077
0.0154745
0.00228796
0.0148937
0.0022683
0.0143164
0.00225713
0.0137427
0.00224412
0.0131703
0.00224122
0.0125999
0.00223376
0.0120287
0.00223858
0.0114582
0.00223505
0.0108851
0.00224676
0.0103119
0.00224488
0.00973434
0.00226234
0.00915677
0.00225884
0.00857353
0.00228057
0.00799133
0.00227072
0.00740255
0.00229531
0.00681749
0.00227222
0.00622517
0.00229912
0.00564146
0.00225354
0.0050501
0.00228164
0.00447309
0.0022131
0.0038942
0.00220775
0.00331742
0.0022219
0.00280023
0.00187242
0.00215135
0.00264447
0.00181908
0.000918452
0.00108779
0.00300552
0.000739977
0.00130254
0.000430325
0.00058917
-0.000654499
0.00543103
0.000164433
-0.00515443
-0.00253795
0.013159
-0.000407903
-0.010803
-0.00257081
0.00795277
-0.00309613
0.00598302
0.000369199
-0.019697
-0.0060757
0.0348985
-0.000858428
-0.0265457
-0.00884467
0.0355403
-0.00609784
-0.0125044
-0.00776827
0.001007
-0.00715902
0.00367031
-0.00011931
-0.0373767
-0.0117675
0.0718256
0.00285834
-0.0724003
-0.0175718
0.0878081
-0.0150455
5.51935e-05
0.00253104
-0.101767
-0.000355653
0.0156042
0.00494758
-0.0204026
-0.00649831
0.0646244
0.00717814
-0.0653322
0.00401299
0.00142559
-0.00611121
0.0566923
0.0075439
-0.0622722
-0.0303238
0.074267
0.0100852
-0.0738842
0.0746911
0.0105087
0.0751454
0.0109195
0.0756093
0.0112964
0.0760569
0.0116243
0.0764636
0.0118914
0.0768096
0.0120932
0.0770803
0.0122314
0.0772654
0.0123113
0.0773574
0.0123403
0.0773506
0.0123262
0.0772398
0.0122758
0.0770207
0.0121945
0.0766893
0.0120871
0.0762427
0.0119566
0.0756788
0.0118055
0.0749974
0.0116351
0.0742003
0.0114466
0.0732914
0.0112409
0.0722768
0.011019
0.0711642
0.0107823
0.0699633
0.0105322
0.0686847
0.0102705
0.0673397
0.00999922
0.0659399
0.00972047
0.0644968
0.00943642
0.0630214
0.00914921
0.061524
0.00886089
0.0600138
0.00857336
0.0584995
0.00828831
0.0569883
0.00800724
0.0554866
0.00773142
0.0539998
0.0074619
0.0525324
0.00719953
0.0510881
0.00694497
0.0496698
0.00669873
0.0482798
0.00646115
0.0469198
0.00623247
0.0455909
0.0060128
0.044294
0.00580221
0.0430295
0.00560062
0.0417974
0.005408
0.0405977
0.00522417
0.0394299
0.00504904
0.0382935
0.00488234
0.0371878
0.00472399
0.0361121
0.00457363
0.0350653
0.00443124
0.0340465
0.00429638
0.0330547
0.00416914
0.0320887
0.00404893
0.0311474
0.00393605
0.0302297
0.00382971
0.0293343
0.00373049
0.0284601
0.00363731
0.0276057
0.00355115
0.0267701
0.00347048
0.0259518
0.00339687
0.0251498
0.00332814
0.0243625
0.00326665
0.0235891
0.00320932
0.0228278
0.00315962
0.0220779
0.0031132
0.0213376
0.0030751
0.0206062
0.00303906
0.0198817
0.00301244
0.0191639
0.00298615
0.0184502
0.0029708
0.0177409
0.0029534
0.0170332
0.002949
0.0163278
0.00293915
0.0156213
0.00294509
0.0149155
0.00294082
0.0142061
0.00295611
0.0134965
0.00295455
0.012781
0.00297779
0.0120651
0.00297481
0.0113415
0.00300409
0.0106186
0.00299369
0.0098867
0.00302716
0.0091584
0.00300052
0.00842023
0.00303729
0.00769125
0.00298252
0.00695183
0.00302106
0.00622851
0.00293642
0.00550087
0.00293539
0.00477767
0.00294509
0.00411543
0.00253466
0.00331734
0.00344256
0.00285546
0.00138033
0.00197078
0.0038902
0.00149836
0.00177495
0.00107722
0.00101031
-0.000156381
0.00666463
0.000628608
-0.00593942
-0.00240452
0.0161922
-3.55062e-05
-0.013172
-0.00270224
0.0106195
-0.00313817
0.00641895
0.000462888
-0.0232981
-0.00643416
0.0417955
-0.000630741
-0.0323491
-0.00966607
0.0445756
-0.0066539
-0.0155166
-0.00910421
0.00345731
-0.00815077
0.00271687
-0.000675257
-0.0448522
-0.0126589
0.0838092
0.0042239
-0.089283
-0.018386
0.110418
-0.0157263
-0.00260601