/*--------------------------------*- C++ -*----------------------------------*\
| =========                 |                                                 |
| \\      /  F ield         | OpenFOAM: The Open Source CFD Toolbox           |
|  \\    /   O peration     | Version:  2412                                  |
|   \\  /    A nd           | Website:  www.openfoam.com                      |
|    \\/     M anipulation  |                                                 |
\*---------------------------------------------------------------------------*/
FoamFile
{
    version     2.0;
    format      ascii;
    arch        "LSB;label=32;scalar=64";
    class       volVectorField;
    location    "0.445";
    object      ddtCorrDdt0(U);
}
// * * * * * * * * * * * * * * * * * * * * * * * * * * * * * * * * * * * * * //

dimensions      [0 1 -2 0 0 0 0];

internalField   nonuniform List<vector> 
12600
(
(-7.37013 0 1.15016)
(-7.5601 3.18592e-19 0.84035)
(-3.43964 -2.3895e-19 1.36055)
(-0.497686 0 1.94293)
(-0.46291 -2.81202e-20 1.20625)
(-1.36616 0 0.425214)
(-1.29721 -4.58346e-20 0.225543)
(-0.510792 0 0.386786)
(0.0312715 0 0.443467)
(-0.160175 0 0.173265)
(-0.310658 0 0.126878)
(-0.264158 1.03368e-18 -0.0167335)
(-0.195529 9.71505e-19 -0.0742385)
(-0.314512 0 -0.111064)
(-0.49467 1.32574e-18 -0.126795)
(-0.412389 0 0.0493444)
(0.100688 1.2176e-19 0.308141)
(0.79595 0 0.452962)
(0.799796 -4.93235e-19 0.182544)
(-0.305042 0 -0.491643)
(-1.71939 0 -0.972709)
(-1.60956 0 -0.361549)
(1.07631 1.04968e-17 1.36691)
(3.62335 -4.20912e-19 1.92029)
(2.3572 1.76403e-19 0.0781868)
(-2.75271 -5.12918e-18 -2.68362)
(-5.78858 0 -2.57145)
(-1.66723 0 1.25953)
(4.17574 0 3.57194)
(3.67938 -9.59375e-19 1.87746)
(-0.0739945 3.9943e-18 -0.256341)
(-0.94852 0 -0.393047)
(0.161573 0 0.331514)
(0.640103 6.99415e-19 0.511885)
(-0.133676 2.7375e-18 0.0532304)
(-0.936755 0 -0.305032)
(-0.682121 0 -0.0909822)
(0.311175 -4.78228e-18 0.397202)
(0.770706 0 0.495824)
(0.0427123 -2.59543e-20 -0.00111717)
(-0.983951 3.02528e-18 -0.523094)
(-0.879866 -6.1776e-18 -0.379723)
(0.365505 0 0.309173)
(1.45605 2.72558e-18 1.00652)
(0.466294 1.22631e-17 0.127577)
(-1.32851 -1.2086e-17 -0.902186)
(-1.47399 -1.47055e-17 -0.722689)
(0.417372 0 0.525629)
(1.91355 -3.04574e-18 1.25852)
(0.708533 2.76114e-17 0.302664)
(-1.9259 0 -1.16366)
(-2.33117 1.47466e-18 -0.960796)
(0.142887 3.64476e-17 0.472608)
(2.56132 0 1.63276)
(1.46813 8.25225e-17 0.771589)
(-1.75995 0 -0.815017)
(-2.31606 0 -0.564631)
(0.059165 2.34189e-19 0.0392814)
(2.05115 9.03191e-19 0.261085)
(1.0527 -1.35145e-16 0.258062)
(-1.98143 7.77076e-17 -0.20779)
(-3.19879 1.97374e-16 -0.568362)
(-0.971007 0 0.140089)
(5.34424 3.14139e-16 4.6539)
(4.95155 -1.89937e-16 2.52358)
(-0.122628 3.63812e-16 -0.99414)
(-2.75617 1.07099e-16 -2.44994)
(-0.345291 0 -0.789566)
(3.69548 0 1.23367)
(2.64965 0 -0.504395)
(0.406568 0 -1.58987)
(-0.117548 0 -1.50479)
(2.86706 -4.15456e-16 -1.34679)
(1.40046 -1.46228e-17 2.92219)
(-4.53642 0 2.94817)
(-1.37694 0 0.911296)
(-5.24957 2.48443e-16 2.9911)
(-70.6574 -2.55843e-18 36.1698)
(37.1969 8.33304e-16 -20.2472)
(53.5463 0 -23.7902)
(-8.47045 0 1.93435)
(-9.30207 0 -0.0845908)
(-3.03517 -2.11633e-18 1.89342)
(-1.37723 0 3.83404)
(-1.08609 0 3.35085)
(2.95973 -2.31344e-15 -4.52741)
(19.2787 1.42087e-17 -14.4369)
(38.2757 0 -22.5444)
(35.4542 0 -18.2642)
(20.0518 1.94548e-16 -9.84139)
(2.34922 8.86818e-16 1.61236)
(-18.4908 5.77353e-16 8.33326)
(-31.9866 -7.8265e-16 15.7)
(-27.6298 -1.89011e-18 15.9885)
(-18.572 -4.58732e-18 11.8647)
(-12.0018 -1.71805e-16 7.22407)
(-6.92036 0 3.50292)
(-3.3073 0 1.30426)
(1.09603 0 -0.313601)
(-0.495503 -6.08918e-16 0.536655)
(-3.73575 4.62862e-16 2.11523)
(-3.63478 -2.35596e-16 1.84403)
(3.35272 2.33532e-16 -2.34807)
(12.4641 0 -6.91968)
(10.9457 0 -6.06538)
(-0.00294684 0 -1.0518)
(-4.96431 -4.20611e-17 2.78938)
(-3.74795 0 2.14166)
(-1.81828 -1.5954e-16 1.0284)
(-0.70833 0 0.458972)
(0.0508916 0 0.0546777)
(0.823331 -2.24308e-17 -0.395787)
(1.3784 0 -0.719461)
(1.96673 0 -1.37654)
(2.253 0 -1.3473)
(2.22121 1.01673e-17 -1.23695)
(1.33276 0 -0.663454)
(0.397231 -1.37039e-16 -0.173424)
(-0.8151 0 0.471166)
(-1.50911 -7.3342e-20 0.854612)
(-13.1231 8.01009e-20 1.73447)
(-13.4848 -2.17338e-19 3.28194)
(-9.13969 -9.81136e-19 4.32644)
(-5.79338 0 4.51066)
(-5.48656 1.68871e-18 3.00147)
(-5.28662 -5.12232e-19 1.71665)
(-4.05207 4.78115e-20 1.41369)
(-2.68585 -4.85619e-19 1.57521)
(-2.10612 0 1.53571)
(-2.20209 0 1.05921)
(-2.14767 0 0.798306)
(-1.94227 0 0.509379)
(-1.68316 0 0.351074)
(-1.67446 0 0.264331)
(-1.5933 3.53339e-19 0.286517)
(-1.30739 0 0.43273)
(-0.653871 1.29505e-18 0.794913)
(0.0189004 0 0.929745)
(-0.231107 1.08877e-18 0.421501)
(-1.52032 -2.96775e-19 -0.664027)
(-2.58777 0 -1.32926)
(-1.3986 4.91861e-18 -0.0282637)
(2.23952 -5.06174e-18 3.25561)
(3.97358 -2.30571e-19 3.82738)
(0.496012 5.52708e-18 -0.597163)
(-5.71208 0 -6.13878)
(-6.27919 7.53454e-18 -4.39945)
(1.32298 0 4.52923)
(7.23037 0 8.84271)
(3.78742 0 3.60187)
(-0.833009 -1.88032e-18 -0.56768)
(-1.05836 0 -0.653121)
(0.455722 0 0.592723)
(0.767115 0 0.82339)
(-0.250248 0 0.0723662)
(-1.01268 0 -0.457367)
(-0.52473 0 -0.123492)
(0.599679 4.92093e-18 0.570595)
(0.950582 0 0.672867)
(0.0337555 -1.74316e-17 -0.06021)
(-1.00026 -5.11213e-18 -0.798416)
(-0.678749 7.41306e-18 -0.596127)
(0.805157 0 0.352059)
(1.78965 0 1.19078)
(0.448877 -2.52135e-17 0.0803661)
(-1.40536 1.23415e-17 -1.24242)
(-1.28972 1.83863e-17 -1.01938)
(0.856089 0 0.595605)
(2.25246 7.8424e-18 1.56317)
(0.691837 0 0.362121)
(-2.07853 0 -1.55475)
(-2.23071 -2.75054e-17 -1.38413)
(0.613486 0 0.571303)
(3.08861 0 2.2206)
(1.56099 -8.33779e-17 1.06333)
(-1.90757 0 -1.03377)
(-2.39545 0 -0.842204)
(0.0304877 2.72091e-19 0.0295581)
(2.05204 -2.76086e-17 0.492543)
(1.003 -1.03659e-18 0.459628)
(-2.17479 0 -0.377306)
(-3.21241 -2.03917e-16 -0.90001)
(0.00480673 -3.73663e-16 0.455531)
(9.6481 0 10.4383)
(6.00198 3.96781e-16 3.07719)
(0.354191 -6.84224e-18 -1.62994)
(-2.90238 0 -4.5186)
(0.283515 2.56794e-16 -1.74358)
(5.21039 0 0.627839)
(5.07963 0 -1.81111)
(5.10796 0 -4.63167)
(4.41249 0 -4.39372)
(7.7882 8.18202e-16 -3.91309)
(-2.0781 7.05273e-17 6.21328)
(-12.3211 0 8.06833)
(-3.92233 0 1.85221)
(2.28265 2.46473e-16 3.72345)
(-212.397 -3.30645e-18 115.832)
(89.8596 -3.38715e-18 -59.7502)
(142.572 0 -74.0301)
(-10.6826 0 5.47439)
(-11.083 0 0.517173)
(-12.6468 -3.09063e-18 7.83406)
(-11.8228 3.01196e-16 10.4744)
(-7.25127 -2.31552e-15 6.16708)
(22.9964 2.23526e-15 -17.5634)
(77.0611 2.14382e-17 -49.41)
(122.029 -1.04531e-15 -71.8119)
(99.6777 0 -54.8471)
(46.7264 -1.86993e-16 -24.5884)
(-4.50007 0 6.81397)
(-55.2046 -5.53587e-16 30.5542)
(-92.5775 0 51.3509)
(-83.4424 -2.1104e-15 48.5123)
(-58.9612 -3.51027e-16 35.1758)
(-37.8875 0 21.833)
(-19.2454 0 10.3332)
(-7.95293 9.21984e-17 3.62003)
(2.62448 5.92906e-17 -1.12652)
(-2.75866 5.8126e-16 2.0045)
(-11.571 -4.39596e-16 6.77625)
(-8.61859 2.23553e-16 4.58922)
(14.2043 0 -9.08861)
(38.9847 5.85854e-16 -22.7157)
(30.6617 0 -17.2472)
(-1.01066 0 0.739589)
(-15.1424 4.31162e-17 8.89914)
(-11.2197 0 6.43718)
(-5.39544 -1.56183e-20 3.05653)
(-2.03249 4.63576e-16 1.18979)
(0.144441 0 -0.0152765)
(2.64977 0 -1.49927)
(4.38187 0 -2.67997)
(6.49174 -8.94963e-17 -4.05048)
(6.72741 -3.92218e-17 -3.9971)
(5.95416 -9.55822e-18 -3.4815)
(2.97564 0 -1.62109)
(0.230827 1.28714e-16 -0.0812845)
(-3.11131 0 1.82233)
(-4.94656 3.45956e-16 2.854)
(-12.4397 -3.18985e-19 3.66596)
(-11.9959 5.14423e-19 6.28891)
(-10.3952 3.3256e-18 5.88075)
(-9.97756 0 4.28935)
(-9.84843 1.41634e-18 3.00804)
(-8.47136 3.28832e-19 2.55634)
(-6.35334 0 2.63107)
(-4.72516 4.60893e-19 2.6928)
(-4.08089 0 2.49417)
(-3.9459 -2.64751e-19 2.10069)
(-3.75289 0 1.64981)
(-3.33356 0 1.31812)
(-2.90958 0 1.08889)
(-2.70407 0 0.984626)
(-2.43501 -1.09817e-18 1.07115)
(-2.11698 0 1.01106)
(-1.48774 0 1.1279)
(-1.00229 0 0.969771)
(-1.27384 -5.45798e-19 0.496457)
(-2.13732 4.74369e-19 -0.0604214)
(-2.34458 0 -0.0483619)
(-0.545553 -5.85638e-19 1.1787)
(2.00435 0 2.83017)
(1.78096 2.43941e-18 2.08974)
(-2.18682 0 -1.90725)
(-6.07814 0 -5.67982)
(-2.93109 -7.14661e-18 -1.37101)
(4.932 0 7.81271)
(7.12882 0 9.51137)
(1.74115 5.1139e-18 2.54903)
(-1.40578 0 -0.700839)
(-0.760196 0 -0.396797)
(0.577615 0 0.48165)
(0.614544 0 0.484686)
(-0.284673 -2.44084e-18 -0.0420643)
(-0.775631 0 -0.302544)
(-0.247557 0 -0.0739471)
(0.669544 -3.24295e-18 0.255883)
(0.884493 0 0.219043)
(0.130814 1.62302e-17 -0.201319)
(-0.614139 6.91514e-19 -0.548346)
(-0.249105 -7.01847e-18 -0.415204)
(0.955688 0 0.0340505)
(1.47469 0 0.213017)
(0.471492 1.19977e-17 -0.171881)
(-0.871632 0 -0.638998)
(-0.759185 -1.73931e-17 -0.546532)
(0.823867 0 0.0635959)
(1.80557 1.57758e-18 0.435229)
(0.639554 0 0.0263716)
(-1.39122 0 -0.701989)
(-1.53152 0 -0.753212)
(0.758171 -3.22525e-17 0.119048)
(2.61618 0 0.878448)
(1.32989 0 0.400861)
(-1.45802 0 -0.431291)
(-2.13124 0 -0.540159)
(0.0386849 1.70775e-16 -0.0164305)
(1.98833 0 0.444782)
(0.867136 -4.76814e-19 0.322061)
(-2.12316 0 -0.381014)
(-2.68711 9.79735e-17 -0.603757)
(1.29701 3.52308e-16 0.810462)
(9.61969 0 8.77576)
(5.22255 -4.01993e-16 0.629609)
(1.43266 -1.61436e-16 -1.4281)
(-1.27687 0 -3.43242)
(1.37162 -2.41837e-16 -1.84923)
(5.90465 0 -1.72244)
(7.76339 0 -3.45442)
(10.2151 0 -7.46417)
(9.21188 0 -6.93624)
(12.6331 -4.58646e-19 -5.81556)
(-6.79247 -6.63265e-17 7.94999)
(-19.414 0 11.8075)
(-5.9603 0 1.33527)
(26.7248 3.05638e-18 -3.63921)
(-338.694 -3.8905e-16 184.573)
(122.589 -3.76236e-16 -92.555)
(221.262 0 -114.901)
(-5.7581 0 7.12005)
(-11.1885 0 1.38853)
(-23.7918 -2.20424e-15 15.6039)
(-20.5101 8.05271e-18 14.5928)
(-10.0576 2.17214e-15 5.84588)
(50.7748 0 -36.7631)
(140.566 7.79592e-16 -88.7095)
(200.363 9.79969e-16 -116.481)
(151.032 0 -80.2489)
(58.7974 0 -27.5739)
(-17.6259 -8.70825e-16 20.4054)
(-89.3024 0 54.407)
(-145.927 7.28209e-16 84.0999)
(-132.041 4.58434e-18 74.9221)
(-94.5861 3.18666e-16 53.4459)
(-61.7611 1.58264e-16 33.7859)
(-30.4938 0 15.5754)
(-11.7676 -8.62824e-17 4.9365)
(3.37026 -5.54835e-17 -1.82163)
(-5.32402 -5.47093e-16 3.86397)
(-18.5447 0 10.8906)
(-10.962 2.04134e-16 5.15557)
(27.3309 0 -18.008)
(63.8462 -5.47814e-16 -37.534)
(46.3471 4.71215e-16 -24.6149)
(-4.51399 0 3.16729)
(-24.3421 -4.03034e-17 14.4202)
(-17.5654 0 9.78862)
(-8.42663 2.81179e-16 4.57287)
(-2.94379 -4.33196e-16 1.50728)
(0.563214 0 -0.354324)
(4.73035 0 -2.77435)
(7.39681 0 -4.61161)
(10.7145 2.34463e-19 -6.3257)
(10.4997 3.66362e-17 -6.01296)
(8.65678 1.19604e-17 -4.86397)
(3.57034 0 -1.76413)
(-0.822839 1.19149e-16 0.695757)
(-5.835 0 3.53428)
(-8.4247 -2.62972e-20 4.8828)
(-10.0902 2.30319e-19 4.91549)
(-9.46706 4.45722e-19 7.0535)
(-10.1448 -2.04386e-18 5.45156)
(-11.7448 2.23979e-18 3.13626)
(-12.2503 7.13363e-19 2.28271)
(-10.7182 -2.17609e-21 2.65456)
(-8.40311 0 3.20398)
(-6.69309 0 3.41842)
(-5.94937 0 3.25561)
(-5.64169 2.5075e-19 2.89533)
(-5.24975 0 2.4326)
(-4.62018 0 2.06069)
(-3.9895 0 1.80011)
(-3.5803 0 1.66484)
(-3.20048 0 1.6732)
(-2.79973 -1.16684e-18 1.56196)
(-2.23349 6.99993e-19 1.47259)
(-1.84738 0 1.12831)
(-1.98423 0 0.709607)
(-2.37526 -1.83008e-19 0.526231)
(-2.02192 2.45533e-18 0.938074)
(-0.431319 -3.865e-18 1.74436)
(0.643658 8.88364e-19 1.48331)
(-0.518607 -2.3099e-18 -0.170737)
(-3.28274 1.04619e-18 -2.09767)
(-3.57941 2.82575e-18 -1.8961)
(1.23279 0 2.66287)
(5.88936 1.18341e-18 7.73944)
(4.24593 0 6.29238)
(-0.550561 -4.84038e-18 0.67579)
(-1.68933 0 -0.826904)
(-0.417809 0 -0.177631)
(0.710138 0 0.413931)
(0.54254 2.12932e-18 0.254075)
(-0.290967 2.30892e-18 -0.190539)
(-0.61139 0 -0.329169)
(-0.0291886 0 -0.122311)
(0.802901 3.0665e-18 0.0771282)
(0.934914 0 -0.0334847)
(0.222387 -3.03853e-19 -0.38067)
(-0.392728 1.14275e-18 -0.598706)
(0.0468254 0 -0.436212)
(1.18283 0 -0.0856022)
(1.56253 0 -0.0258219)
(0.552191 0 -0.330535)
(-0.688146 6.32581e-18 -0.643513)
(-0.50626 0 -0.518632)
(1.00891 1.76235e-17 -0.0455381)
(1.86965 -8.49128e-18 0.192908)
(0.71447 0 -0.147394)
(-1.1447 0 -0.671582)
(-1.14881 0 -0.67293)
(1.04798 3.04287e-17 -0.034204)
(2.64569 9.96223e-18 0.421804)
(1.32859 7.86841e-17 0.104924)
(-1.36569 0 -0.444289)
(-2.03566 -6.89516e-17 -0.487686)
(0.076474 -1.60567e-16 0.0294027)
(1.92756 0 0.428406)
(0.739834 2.4393e-16 0.191382)
(-2.08244 0 -0.455583)
(-2.23358 -9.41096e-17 -0.505393)
(2.29155 -3.08811e-16 1.0151)
(7.21508 0 3.11313)
(5.53013 1.94306e-16 -0.172358)
(2.2029 1.48428e-16 -1.82904)
(0.247108 0 -2.58399)
(2.5712 0 -1.9244)
(7.57897 0 -2.87735)
(10.7063 -1.75174e-16 -5.52508)
(15.4387 -1.40598e-16 -10.7279)
(14.0588 0 -9.66122)
(17.2197 -3.61185e-16 -7.38692)
(-10.9584 8.41613e-17 11.4066)
(-26.1403 0 15.8572)
(-10.1417 0 1.00675)
(62.5913 -2.2035e-16 -12.699)
(-433.77 -5.81351e-18 235.676)
(139.609 0 -124.477)
(289.806 0 -148.62)
(6.11844 0 7.14431)
(-9.98527 0 1.82008)
(-35.9213 1.0491e-18 23.8274)
(-26.6934 -2.72527e-16 17.5192)
(-9.4232 0 0.976279)
(85.5071 0 -61.7418)
(207.434 0 -131.698)
(269.749 9.28529e-16 -156.257)
(185.538 0 -94.6266)
(55.3863 -2.03695e-16 -21.4899)
(-37.4819 8.15496e-16 35.0344)
(-120.821 -4.5458e-16 76.1164)
(-191.557 -6.81725e-16 112.294)
(-171.82 1.83146e-15 96.8119)
(-124.148 -2.98232e-16 68.7452)
(-82.8904 -1.48094e-16 44.1209)
(-40.587 0 20.0711)
(-14.8207 0 5.7492)
(3.58153 -4.7685e-17 -2.153)
(-8.04421 2.56663e-16 5.96245)
(-24.2555 3.86789e-16 14.3005)
(-10.4366 -1.81552e-18 3.95094)
(42.2503 0 -28.2702)
(86.3471 0 -50.7718)
(57.2902 -4.40445e-16 -29.5404)
(-8.95788 0 7.29793)
(-32.1716 4.49646e-17 19.3099)
(-22.7152 0 12.4698)
(-10.9003 -7.1571e-19 5.72663)
(-3.43147 0 1.62193)
(1.24222 -2.6625e-16 -0.872469)
(6.90907 -2.52355e-17 -4.13058)
(10.2294 -1.43275e-16 -6.38433)
(14.2162 9.65708e-19 -8.3964)
(13.2457 0 -7.60014)
(10.1676 -1.11696e-17 -5.57564)
(3.07171 -1.42298e-16 -1.32435)
(-2.74244 -1.11257e-16 1.93171)
(-8.97432 0 5.47824)
(-11.8948 -6.60514e-20 6.91483)
(-8.77743 0 4.52233)
(-8.27208 1.49431e-19 5.82616)
(-9.54311 0 4.42769)
(-11.7379 -2.11615e-18 2.2932)
(-12.6681 -1.93997e-18 1.7593)
(-11.7146 1.42518e-19 2.56115)
(-9.95901 0 3.46518)
(-8.5835 0 3.91363)
(-7.90875 7.29929e-20 3.90733)
(-7.49907 3.32851e-19 3.64263)
(-6.90411 -3.2275e-19 3.26332)
(-6.04148 -2.72564e-19 2.93515)
(-5.1905 2.03336e-19 2.68752)
(-4.59638 0 2.50694)
(-4.14305 0 2.38712)
(-3.71459 1.9948e-18 2.13694)
(-3.1594 -1.11819e-19 1.87618)
(-2.71478 0 1.48478)
(-2.62312 1.7849e-19 1.14938)
(-2.67969 -4.25807e-19 1.08497)
(-2.13438 -2.32128e-18 1.45943)
(-0.958937 0 1.76018)
(-0.515288 -8.39676e-19 0.986171)
(-1.58861 -7.72657e-19 -0.555329)
(-2.79413 -9.88286e-19 -1.12458)
(-0.991596 -1.10583e-18 1.27046)
(2.87451 0 4.23063)
(3.78477 2.62827e-18 4.32083)
(0.669202 0 1.86346)
(-2.3634 -2.83716e-18 -1.20188)
(-1.70149 0 -0.918293)
(-0.0883506 0 0.0205758)
(0.804992 0 0.382335)
(0.486187 -2.01118e-18 0.101232)
(-0.283934 0 -0.310948)
(-0.471628 0 -0.389021)
(0.148238 0 -0.203631)
(0.916956 0 -0.0862042)
(0.990443 4.82202e-18 -0.244999)
(0.310011 -1.33131e-17 -0.555375)
(-0.207762 0 -0.700458)
(0.292101 7.03589e-18 -0.513046)
(1.38167 0 -0.207638)
(1.67312 0 -0.186861)
(0.635933 0 -0.467729)
(-0.54036 -1.15556e-18 -0.708283)
(-0.286284 0 -0.545378)
(1.21283 -1.66171e-17 -0.116417)
(1.99409 0 0.0490794)
(0.818566 0 -0.299357)
(-0.942355 5.97223e-18 -0.755287)
(-0.83162 0 -0.717464)
(1.32754 0 -0.17754)
(2.7648 1.181e-18 0.154683)
(1.3659 -7.41111e-17 -0.0951887)
(-1.31909 0 -0.491669)
(-1.97294 -1.31173e-18 -0.432005)
(0.09358 1.50415e-16 0.101516)
(1.84565 0 0.430309)
(0.608151 -1.14795e-16 0.0867018)
(-2.05041 0 -0.540718)
(-1.82478 8.85337e-17 -0.469458)
(2.80957 2.90461e-16 0.895193)
(6.20704 0 0.0659016)
(6.07016 -1.98991e-16 -0.798228)
(2.92832 -1.95949e-18 -2.26454)
(1.35529 0 -2.51846)
(3.75346 0 -2.31198)
(9.50799 0 -4.21)
(13.994 3.31021e-16 -7.97758)
(20.8922 2.64613e-18 -14.2419)
(19.0286 0 -12.4158)
(21.4847 3.38629e-16 -8.44962)
(-15.3921 -1.66066e-16 15.6323)
(-33.7714 0 20.4777)
(-18.5925 0 1.83594)
(100.407 0 -19.993)
(-482.397 -9.70295e-18 259.818)
(148.739 0 -156.429)
(349.485 0 -176.543)
(24.58 0 5.63926)
(-7.2031 0 2.05837)
(-47.7746 9.66961e-16 32.2313)
(-31.1664 -2.62684e-16 18.7586)
(-1.86421 0 -3.84522)
(126.059 0 -93.3665)
(275.807 0 -175.797)
(327.737 4.9181e-18 -187.855)
(201.647 0 -95.7476)
(39.3314 1.90689e-16 -5.6495)
(-60.0208 0 49.3124)
(-147.501 4.25438e-16 95.6757)
(-229.282 0 135.298)
(-203.544 -8.53637e-16 112.959)
(-148.43 0 80.0631)
(-101.626 0 52.3437)
(-50.0267 0 23.6402)
(-17.5459 0 6.03717)
(3.3621 4.45877e-17 -2.09162)
(-10.724 0 8.20421)
(-28.514 -3.61587e-16 16.7473)
(-7.56003 -1.76714e-16 0.509017)
(58.0569 0 -39.6422)
(105.929 0 -62.0444)
(64.5527 0 -31.3898)
(-13.0762 0 13.7452)
(-38.8277 5.42154e-18 23.4119)
(-26.8963 0 14.3592)
(-12.9304 -2.4265e-16 6.45777)
(-3.64999 0 1.46967)
(2.03968 4.96348e-16 -1.56344)
(8.98334 2.35693e-17 -5.51526)
(12.7383 1.33806e-16 -7.84038)
(16.9337 7.18134e-17 -9.97582)
(15.0278 0 -8.44401)
(10.5676 0 -5.54661)
(1.68299 2.65601e-16 -0.208567)
(-5.30174 -1.02853e-16 3.65825)
(-12.469 9.61904e-18 7.68709)
(-15.3685 -1.40728e-16 8.94267)
(-8.39854 0 3.37124)
(-8.09312 -1.78433e-18 4.31613)
(-9.19401 0 3.55454)
(-10.9257 0 2.10887)
(-11.7622 0 1.82419)
(-11.4666 0 2.62623)
(-10.6524 0 3.56638)
(-10.0244 1.9401e-19 4.14658)
(-9.73345 -6.88726e-20 4.33776)
(-9.41715 -7.18295e-19 4.25649)
(-8.7434 6.51295e-19 4.03301)
(-7.74118 2.57244e-19 3.79854)
(-6.74125 -1.91922e-19 3.58987)
(-6.01781 0 3.37819)
(-5.50426 0 3.14484)
(-5.01458 -1.41578e-18 2.79798)
(-4.38667 -8.99825e-19 2.44052)
(-3.79754 0 2.04919)
(-3.47191 -1.68454e-19 1.75152)
(-3.26815 4.01947e-19 1.67902)
(-2.67791 0 1.88791)
(-1.84476 1.5956e-18 1.8179)
(-1.57867 0 1.01212)
(-2.14218 6.15474e-19 -0.0737037)
(-2.22097 -8.96938e-20 -0.013641)
(-0.2165 -1.17753e-18 1.91695)
(2.06447 0 3.25172)
(1.09843 -3.53598e-18 1.32621)
(-1.84343 6.58893e-18 -1.00007)
(-2.78585 3.23164e-18 -1.54883)
(-1.37046 -3.02259e-18 -0.758935)
(0.22735 0 0.311721)
(0.79517 -4.51805e-20 0.379498)
(0.375478 0 0.00696681)
(-0.312746 0 -0.389704)
(-0.374893 0 -0.430315)
(0.275169 0 -0.268604)
(0.99215 0 -0.211358)
(1.02601 -1.92624e-20 -0.401566)
(0.382111 6.07195e-18 -0.687091)
(-0.050695 0 -0.788143)
(0.49768 -1.34914e-17 -0.590063)
(1.5456 0 -0.317309)
(1.76339 0 -0.319186)
(0.706967 0 -0.583503)
(-0.40659 -4.53126e-18 -0.774355)
(-0.0816917 0 -0.58469)
(1.40941 0 -0.186958)
(2.12365 0 -0.0778046)
(0.929208 0 -0.443604)
(-0.749439 -1.09276e-17 -0.86434)
(-0.541989 0 -0.802781)
(1.59296 0 -0.310314)
(2.90234 -9.94165e-18 -0.0286034)
(1.40746 0 -0.231792)
(-1.29073 0 -0.513363)
(-1.92877 1.25619e-16 -0.352054)
(0.0933308 -7.0502e-17 0.196149)
(1.74629 0 0.44735)
(0.469674 0 -0.000204268)
(-2.02421 0 -0.623554)
(-1.47672 -8.12684e-17 -0.487664)
(3.16007 0 0.597728)
(6.64527 0 -0.304367)
(6.54238 3.80464e-16 -1.38013)
(3.60979 -2.56263e-16 -2.72153)
(2.31731 0 -2.82919)
(5.02253 0 -2.9872)
(11.7164 0 -5.84308)
(17.6676 -1.56241e-16 -10.8607)
(26.5765 1.21434e-16 -18.0002)
(24.0884 -1.48745e-16 -15.151)
(25.3114 -3.17673e-16 -8.84716)
(-20.3373 8.16641e-17 20.7959)
(-43.178 -7.51991e-16 26.418)
(-32.036 0 4.19691)
(133.385 0 -23.2956)
(-474.306 1.75324e-16 252.297)
(155.57 0 -189.984)
(402.725 0 -199.708)
(49.1473 0 2.95751)
(-2.672 0 2.34986)
(-58.2704 0 40.1148)
(-33.4944 4.91423e-16 18.3296)
(8.3415 0 -17.3886)
(171.58 1.62889e-15 -129.687)
(342.249 0 -219.583)
(370.95 4.61477e-18 -209.322)
(198.918 1.33839e-15 -82.3511)
(13.8775 0 15.9061)
(-78.2167 0 66.1983)
(-168.877 0 112.76)
(-258.74 0 154.126)
(-227.342 7.79818e-16 124.462)
(-167.447 0 88.1998)
(-118.12 0 58.9084)
(-59.0825 0 26.581)
(-20.2864 0 6.02048)
(2.69422 0 -1.77071)
(-13.1819 0 10.4191)
(-31.1338 0 18.1174)
(-2.20707 0 -4.16332)
(73.9829 -1.81465e-16 -51.5285)
(122.088 0 -71.2903)
(68.3294 0 -30.7768)
(-18.2376 0 18.6556)
(-44.0822 -4.43093e-17 26.8148)
(-30.1896 0 15.6729)
(-14.5631 1.12765e-16 6.88472)
(-3.67664 0 1.14164)
(2.87125 -1.12743e-18 -2.30565)
(10.8323 0 -6.7749)
(14.6921 -1.27817e-16 -9.02468)
(18.7143 0 -11.0546)
(15.7042 0 -8.77287)
(9.90725 0 -4.9233)
(-0.496555 -1.23924e-16 1.37538)
(-8.35786 1.91426e-16 5.66887)
(-16.3192 -1.82343e-17 10.1056)
(-18.8924 -1.31112e-16 10.9931)
(-8.33184 0 2.66065)
(-8.2838 1.22993e-18 3.29618)
(-9.03217 0 3.07728)
(-9.93405 0 2.40972)
(-10.3718 -1.69226e-19 2.33359)
(-10.4335 -5.14606e-19 2.92304)
(-10.4096 3.88389e-19 3.63097)
(-10.5948 -1.70469e-19 4.14436)
(-10.8983 0 4.46136)
(-10.9315 -8.32379e-20 4.59729)
(-10.4364 -3.26696e-19 4.5755)
(-9.52033 0 4.47384)
(-8.54958 0 4.33563)
(-7.8124 0 4.13863)
(-7.26962 0 3.86617)
(-6.70024 2.83235e-19 3.49576)
(-5.95235 1.61107e-19 3.11411)
(-5.18966 -2.08561e-20 2.73736)
(-4.64353 -1.75721e-19 2.45009)
(-4.24204 0 2.32517)
(-3.65644 -6.68648e-19 2.33023)
(-2.98009 -1.50388e-18 2.07536)
(-2.66082 0 1.37533)
(-2.6985 3.51808e-19 0.649683)
(-2.16255 -4.54547e-20 0.800251)
(-0.56725 -2.81841e-19 1.75105)
(0.411963 0 1.75563)
(-0.835148 0 -0.0607872)
(-2.75487 -6.2076e-18 -1.53991)
(-2.45624 -1.30761e-18 -0.749974)
(-0.986541 5.92807e-18 -0.0929897)
(0.358998 0 0.578752)
(0.712594 -4.42251e-19 0.560945)
(0.163387 0 -0.06182)
(-0.401995 0 -0.418793)
(-0.33732 -1.33597e-18 -0.433367)
(0.336301 0 -0.301382)
(1.01008 -1.34806e-18 -0.295599)
(1.0225 -1.1736e-19 -0.505212)
(0.424766 -4.65204e-18 -0.768954)
(0.0726542 0 -0.842945)
(0.661484 -2.18395e-19 -0.648648)
(1.66973 0 -0.408508)
(1.82467 0 -0.428458)
(0.762323 0 -0.676163)
(-0.282487 0 -0.828698)
(0.112048 0 -0.625009)
(1.59416 1.27948e-17 -0.261942)
(2.24491 0 -0.205657)
(1.0349 0 -0.589848)
(-0.566171 4.98904e-18 -0.984678)
(-0.273637 0 -0.904032)
(1.83541 -2.22885e-17 -0.438118)
(3.02664 1.13027e-17 -0.176202)
(1.43817 -6.64622e-17 -0.329396)
(-1.2732 0 -0.506301)
(-1.89313 -5.9499e-17 -0.252231)
(0.0861965 -6.48306e-17 0.302877)
(1.64155 0 0.471235)
(0.333025 0 -0.079011)
(-2.00133 0 -0.711917)
(-1.19147 7.63062e-17 -0.563787)
(3.41609 0 0.242438)
(6.97906 0 -0.708836)
(6.93609 -1.81649e-16 -1.96168)
(4.2714 2.36012e-16 -3.20706)
(3.3138 0 -3.29802)
(6.48623 0 -3.90993)
(14.2594 0 -7.8367)
(21.7593 0 -14.1941)
(32.4656 1.07306e-16 -21.9644)
(29.1584 1.39462e-16 -17.7712)
(28.559 0 -8.3928)
(-26.0556 0 27.1644)
(-54.971 7.04775e-16 34.1872)
(-49.5822 0 7.20452)
(161.157 -1.95074e-16 -24.8385)
(-413.184 1.9626e-16 215.348)
(155.969 0 -234.252)
(451.177 0 -219.459)
(79.1209 0 -0.469828)
(3.66008 0 2.94318)
(-66.3189 0 46.9197)
(-34.5217 -2.29725e-16 16.0529)
(21.6126 0 -39.8166)
(221.968 -3.01852e-15 -169.68)
(403.561 0 -261.287)
(396.87 4.28607e-18 -218.318)
(178.014 -1.68351e-17 -56.0037)
(-15.5798 0 40.6139)
(-92.1533 -6.91969e-16 78.2708)
(-185.075 0 127.28)
(-280.834 0 168.576)
(-244.33 -1.44552e-15 131.486)
(-181.737 0 93.2078)
(-132.929 0 64.0548)
(-68.1311 0 29.0504)
(-23.3991 0 5.89241)
(1.5994 0 -1.19175)
(-15.2319 0 12.472)
(-32.0513 0 18.3164)
(4.30112 0 -11.319)
(89.2985 1.69533e-16 -63.4349)
(134.773 0 -78.1222)
(69.5257 0 -27.9556)
(-22.2852 0 24.5754)
(-48.2733 5.50444e-17 29.4487)
(-32.7922 2.32473e-16 16.4483)
(-15.9145 -1.0151e-16 7.03218)
(-3.617 3.23984e-16 0.695774)
(3.59436 -1.24997e-18 -3.05779)
(12.2652 2.05907e-17 -7.87623)
(15.9672 2.37704e-16 -9.92533)
(19.5735 0 -11.536)
(15.452 3.43619e-17 -8.47467)
(8.45899 -7.88237e-18 -3.70542)
(-3.22535 0 3.37417)
(-11.658 -8.90603e-17 7.89432)
(-20.4793 8.63881e-18 12.7299)
(-22.5415 1.22382e-16 13.0981)
(-8.31577 0 2.57525)
(-8.26352 -4.38915e-19 2.96486)
(-8.76865 0 3.04349)
(-9.10809 0 2.8908)
(-9.18557 1.59345e-19 2.94197)
(-9.29541 4.84448e-19 3.30371)
(-9.65779 -3.65552e-19 3.69364)
(-10.355 -1.96695e-19 4.00145)
(-11.1352 0 4.32135)
(-11.5843 -5.24251e-19 4.6233)
(-11.4765 7.6778e-19 4.80123)
(-10.9243 0 4.84749)
(-10.2515 -4.09797e-19 4.8081)
(-9.70186 0 4.68561)
(-9.23661 -1.62739e-19 4.46828)
(-8.64156 2.42849e-19 4.15719)
(-7.80489 1.86012e-19 3.81335)
(-6.90569 1.96214e-20 3.46289)
(-6.18899 4.1376e-19 3.16745)
(-5.63605 0 2.97783)
(-5.01935 6.2939e-19 2.84995)
(-4.36666 0 2.5285)
(-3.9001 0 1.93511)
(-3.53305 -2.30475e-19 1.38635)
(-2.76794 3.18941e-19 1.32169)
(-1.63917 0 1.44108)
(-1.32957 0 0.761832)
(-2.27508 0 -0.57742)
(-3.11444 1.55567e-18 -1.1711)
(-2.29954 7.39102e-19 -0.212045)
(-0.788142 -3.13345e-19 0.5852)
(0.187109 1.28558e-18 0.715573)
(0.331494 1.25487e-18 0.516101)
(-0.201518 -1.63855e-18 -0.0844783)
(-0.553066 6.09455e-19 -0.388765)
(-0.367754 -1.75399e-19 -0.389477)
(0.32505 0 -0.295319)
(0.967465 1.26786e-18 -0.332655)
(0.975584 -3.89721e-18 -0.554262)
(0.431861 4.37457e-18 -0.802094)
(0.158411 0 -0.863686)
(0.784309 6.2769e-18 -0.684775)
(1.75801 3.08489e-18 -0.477784)
(1.86232 -5.16519e-18 -0.512802)
(0.807119 -7.73779e-18 -0.745338)
(-0.162836 0 -0.8703)
(0.300038 0 -0.66474)
(1.76993 -6.88625e-19 -0.34191)
(2.35666 0 -0.338468)
(1.13135 0 -0.742739)
(-0.396311 4.07409e-18 -1.11683)
(-0.026747 2.22548e-17 -1.01637)
(2.05534 2.09328e-17 -0.559026)
(3.13532 8.73226e-19 -0.295581)
(1.45973 4.56415e-21 -0.396108)
(-1.25741 0 -0.477771)
(-1.85236 0 -0.14254)
(0.0876956 1.2074e-16 0.410074)
(1.54701 0 0.491919)
(0.211754 0 -0.155983)
(-1.97952 4.27049e-17 -0.817372)
(-0.966007 0 -0.698662)
(3.591 0 -0.150456)
(7.20387 -1.22383e-17 -1.16871)
(7.26467 1.79642e-16 -2.55257)
(4.93359 -2.16147e-16 -3.73776)
(4.40586 0 -3.91077)
(8.20102 -1.63906e-16 -5.10782)
(17.1732 0 -10.237)
(26.2563 0 -17.979)
(38.4771 -1.97055e-16 -26.0678)
(34.0979 0 -20.1351)
(31.0591 0 -6.85294)
(-32.8322 0 35.0035)
(-69.1311 0 43.9366)
(-68.4762 0 8.45878)
(190.552 1.82678e-16 -30.067)
(-323.313 2.43241e-17 161.589)
(165.931 -3.95905e-16 -248.128)
(495.812 -9.18754e-16 -237.975)
(113.685 0 -4.0814)
(11.7407 0 4.12014)
(-71.018 0 52.1738)
(-33.3055 0 11.5541)
(44.4084 0 -59.9858)
(274.116 3.80803e-17 -213.098)
(457.049 0 -297.516)
(403.614 -7.24142e-16 -213.219)
(141.011 -1.84436e-17 -21.4691)
(-43.7674 0 64.3036)
(-98.5319 6.46987e-16 87.7269)
(-196.983 0 140.016)
(-296.128 4.78556e-16 179.42)
(-255.497 1.50244e-17 134.889)
(-191.644 0 95.5493)
(-146.666 0 68.2707)
(-77.5474 0 31.2738)
(-27.2393 0 5.81642)
(0.0327568 2.80083e-17 -0.393144)
(-16.7394 0 14.2371)
(-31.3806 0 17.3095)
(13.0507 -1.39344e-16 -17.8151)
(103.43 0 -74.928)
(143.921 -3.81064e-16 -82.5742)
(68.7531 3.10869e-16 -23.4679)
(-26.1569 0 28.9874)
(-51.4055 -1.11504e-16 31.5377)
(-34.8578 8.72724e-18 16.8188)
(-17.0844 1.86829e-16 6.98035)
(-3.57789 -3.02509e-16 0.190459)
(4.11512 -1.99498e-16 -3.73338)
(13.2187 -1.92241e-17 -8.69166)
(16.5983 -1.10503e-16 -10.3805)
(19.5388 -5.2237e-17 -11.5151)
(14.4967 -3.20774e-17 -7.56232)
(6.43683 7.35812e-18 -2.13928)
(-6.27767 1.07187e-16 5.60334)
(-14.9867 8.17329e-17 10.1657)
(-24.8696 0 15.5028)
(-26.3803 0 15.292)
(-8.21837 0 2.82817)
(-8.02932 -1.13317e-19 3.07744)
(-8.48015 0 3.20313)
(-8.60566 0 3.24681)
(-8.48558 0 3.35768)
(-8.51254 0 3.56859)
(-8.92809 -2.71037e-20 3.71159)
(-9.74389 1.74047e-19 3.81537)
(-10.6667 -4.53638e-19 4.06646)
(-11.3268 9.0341e-19 4.44575)
(-11.5674 -7.21754e-19 4.76151)
(-11.4977 0 4.92184)
(-11.3385 3.85239e-19 4.97531)
(-11.2079 0 4.96523)
(-11.0128 1.52991e-19 4.8827)
(-10.5532 1.75225e-19 4.70709)
(-9.76666 0 4.45652)
(-8.85242 0 4.15338)
(-8.06151 -2.335e-19 3.85681)
(-7.41262 0 3.62302)
(-6.74518 0 3.42574)
(-6.04437 -1.44303e-19 3.1027)
(-5.41348 0 2.60333)
(-4.78708 0 2.10253)
(-3.95132 -1.84974e-19 1.77085)
(-3.10086 0 1.38241)
(-2.92964 0 0.518608)
(-3.3233 0 -0.328625)
(-3.33519 -1.48487e-18 -0.385846)
(-2.31028 0 0.438446)
(-1.03813 -5.06453e-19 0.948158)
(-0.332671 -4.41928e-19 0.795733)
(-0.339338 -7.50853e-19 0.272623)
(-0.612889 1.53992e-18 -0.0739279)
(-0.761357 -8.2306e-19 -0.252901)
(-0.465565 1.34576e-18 -0.267094)
(0.235486 0 -0.236699)
(0.855291 0 -0.32302)
(0.875555 -3.37172e-18 -0.552245)
(0.393748 3.06502e-18 -0.790952)
(0.199815 0 -0.853031)
(0.864435 0 -0.698039)
(1.81258 -1.51086e-19 -0.523831)
(1.87987 4.85092e-18 -0.571725)
(0.844216 7.26638e-18 -0.791949)
(-0.0454402 -6.5661e-19 -0.899801)
(0.483953 0 -0.703468)
(1.93673 -6.70843e-19 -0.426555)
(2.45622 0 -0.476854)
(1.21415 0 -0.902308)
(-0.243402 -3.82387e-18 -1.25782)
(0.197954 -2.0886e-17 -1.13427)
(2.25317 0 -0.670919)
(3.22877 -1.07787e-17 -0.3917)
(1.47679 1.72535e-19 -0.439324)
(-1.23273 0 -0.436745)
(-1.79167 0 -0.034091)
(0.114287 -1.11215e-16 0.507098)
(1.47854 0 0.501548)
(0.114908 0 -0.239486)
(-1.95618 -7.83752e-17 -0.943709)
(-0.798039 0 -0.889191)
(3.6866 0 -0.576535)
(7.33316 3.23421e-17 -1.666)
(7.53501 -1.68366e-16 -3.16268)
(5.61133 9.9934e-17 -4.32794)
(5.62701 0 -4.68018)
(10.1977 1.53567e-16 -6.61307)
(20.4629 0 -13.0739)
(31.0948 1.35228e-16 -22.1857)
(44.4712 9.03784e-17 -30.2051)
(38.7186 0 -22.062)
(32.6479 0 -3.96413)
(-40.8184 -9.56383e-17 44.6048)
(-84.6681 -6.52915e-16 55.0781)
(-83.1093 0 4.13427)
(229.069 0 -44.2295)
(-236.988 -4.19868e-16 114.929)
(100.639 3.70488e-16 -348.008)
(529.062 1.67219e-15 -259.176)
(151.837 0 -7.36435)
(21.4076 0 6.1851)
(-71.7475 0 55.5482)
(-29.6447 0 4.37718)
(69.9657 0 -88.9087)
(326.437 4.61105e-17 -258.201)
(499.84 0 -326.044)
(390.702 0 -193.204)
(94.7009 -1.99914e-17 18.3512)
(-66.7317 0 84.3244)
(-99.1666 6.13657e-16 92.5796)
(-205.531 0 151.498)
(-305.485 -4.47251e-16 186.886)
(-262.052 1.73894e-17 135.278)
(-197.695 0 95.5776)
(-159.911 0 71.9718)
(-87.7196 0 33.4644)
(-32.1382 0 5.93118)
(-2.07915 -3.32669e-18 0.626785)
(-17.6541 -2.03949e-16 15.6287)
(-29.1157 2.84083e-16 15.1781)
(20.9635 1.30145e-16 -27.8103)
(115.761 0 -85.6621)
(149.707 3.55868e-16 -84.6399)
(66.8932 -2.90299e-16 -17.7834)
(-28.3604 0 34.0269)
(-53.7567 5.61181e-17 33.2327)
(-36.6103 -4.27292e-16 16.79)
(-18.1791 -8.59363e-17 6.78268)
(-3.65744 0 -0.317574)
(4.34065 1.8338e-16 -4.29224)
(13.5951 0 -9.2353)
(16.5411 0 -10.5586)
(18.8029 4.8762e-17 -11.0156)
(12.9603 0 -6.42078)
(4.2348 0 -0.361881)
(-9.36456 -1.00047e-16 7.91926)
(-18.097 -7.62864e-17 12.3748)
(-29.3263 8.2757e-18 18.3466)
(-30.4319 -1.05899e-16 17.5844)
(-8.09428 0 2.99644)
(-7.8642 1.06516e-19 3.16875)
(-8.30498 2.46318e-19 3.27152)
(-8.36102 0 3.36822)
(-8.19679 0 3.49855)
(-8.1732 0 3.6316)