/*--------------------------------*- C++ -*----------------------------------*\
| =========                 |                                                 |
| \\      /  F ield         | OpenFOAM: The Open Source CFD Toolbox           |
|  \\    /   O peration     | Version:  2412                                  |
|   \\  /    A nd           | Website:  www.openfoam.com                      |
|    \\/     M anipulation  |                                                 |
\*---------------------------------------------------------------------------*/
FoamFile
{
    version     2.0;
    format      ascii;
    arch        "LSB;label=32;scalar=64";
    class       volScalarField;
    location    "0.225";
    object      Co;
}
// * * * * * * * * * * * * * * * * * * * * * * * * * * * * * * * * * * * * * //

dimensions      [0 0 0 0 0 0 0];

internalField   nonuniform List<scalar> 
12600
(
0.313908
0.176246
0.0998732
0.0628881
0.0449602
0.0350597
0.0286703
0.0240944
0.0206224
0.0178871
0.0156723
0.0138414
0.0123033
0.0109943
0.00986821
0.00889089
0.00803626
0.00728409
0.00661842
0.00602644
0.00549777
0.00502389
0.0045977
0.00421329
0.00386564
0.00355049
0.0032642
0.00300361
0.002766
0.002549
0.00235052
0.00216875
0.00200207
0.00184906
0.00170846
0.00157914
0.00146009
0.00135043
0.00124934
0.00115608
0.00107001
0.000990522
0.000917079
0.000849192
0.000786415
0.000728347
0.000674616
0.000624894
0.00057887
0.000536271
0.000496839
0.000460345
0.000426565
0.000395309
0.000366379
0.000339612
0.000314832
0.000291892
0.000270633
0.000250913
0.000232592
0.00021553
0.000199607
0.000184685
0.000170655
0.000157371
0.000144718
0.000132593
0.000121014
0.000110115
0.000100214
9.162e-05
8.46762e-05
7.93194e-05
7.51946e-05
7.13328e-05
6.68315e-05
6.13622e-05
5.55864e-05
5.04163e-05
4.64551e-05
4.3125e-05
3.98917e-05
3.68122e-05
3.51471e-05
3.57592e-05
3.76858e-05
4.01597e-05
4.22894e-05
4.4268e-05
4.6111e-05
4.8377e-05
5.06889e-05
5.2777e-05
5.3325e-05
5.2404e-05
4.96323e-05
4.68229e-05
4.39718e-05
4.19973e-05
4.16611e-05
4.43325e-05
4.79234e-05
5.33954e-05
5.9048e-05
6.45185e-05
6.94786e-05
7.33448e-05
7.68398e-05
7.91944e-05
8.12739e-05
8.21961e-05
8.32285e-05
8.32899e-05
8.41523e-05
8.37803e-05
8.49991e-05
8.46836e-05
8.82647e-05
9.38062e-05
0.476614
0.375604
0.275823
0.202173
0.152983
0.120475
0.098208
0.0821384
0.0699869
0.0604627
0.0527917
0.0464816
0.0412039
0.03673
0.0328953
0.0295781
0.026686
0.0241477
0.021907
0.0199191
0.0181477
0.0165631
0.0151407
0.01386
0.0127037
0.0116571
0.0107078
0.00984489
0.00905912
0.00834239
0.00768763
0.00708865
0.00654
0.00603687
0.00557499
0.00515057
0.00476023
0.00440096
0.00407004
0.00376503
0.00348373
0.00322415
0.00298449
0.00276311
0.00255854
0.00236945
0.00219458
0.00203286
0.00188324
0.00174483
0.00161675
0.00149824
0.00138857
0.00128709
0.00119316
0.00110623
0.00102573
0.000951181
0.000882069
0.000817939
0.000758355
0.000702872
0.000651136
0.00060271
0.000557306
0.000514464
0.000473887
0.000435171
0.000398334
0.00036357
0.000331798
0.000303723
0.000280576
0.000262204
0.000248074
0.000235281
0.000221117
0.000203922
0.000185613
0.000168775
0.00015598
0.00014533
0.00013519
0.000125187
0.000121685
0.000125275
0.000131998
0.000139375
0.000145094
0.000150555
0.000155914
0.000162738
0.0001693
0.000174236
0.00017375
0.000168825
0.000159251
0.000150649
0.000142719
0.000141336
0.000143596
0.000155276
0.000168517
0.000186809
0.00020425
0.000220187
0.000234223
0.000244584
0.000254193
0.00026
0.000265427
0.00026709
0.000269918
0.000269326
0.000272318
0.00027008
0.000274924
0.00027225
0.000286138
0.000302416
0.511061
0.467447
0.396401
0.324823
0.264112
0.21621
0.17944
0.151197
0.129166
0.111639
0.0974236
0.0856939
0.075873
0.0675483
0.060418
0.0542563
0.048891
0.0441884
0.040043
0.0363704
0.0331024
0.030183
0.0275659
0.0252125
0.0230903
0.0211719
0.0194336
0.0178553
0.0164196
0.0151113
0.0139173
0.0128261
0.0118274
0.0109123
0.0100729
0.00930225
0.00859399
0.00794256
0.00734296
0.00679067
0.00628164
0.00581222
0.00537907
0.00497922
0.00460993
0.00426876
0.00395343
0.00366194
0.00339239
0.00314311
0.00291252
0.00269922
0.00250186
0.00231927
0.00215026
0.00199385
0.001849
0.00171483
0.00159046
0.00147505
0.00136787
0.0012681
0.00117518
0.00108831
0.00100711
0.00093071
0.000858683
0.000790064
0.000724809
0.000662774
0.000605555
0.000554012
0.000510893
0.000476153
0.000450127
0.000427541
0.000403514
0.000373503
0.000340837
0.000309894
0.000286904
0.000267942
0.000250066
0.00023137
0.000229461
0.00023893
0.000252036
0.000264509
0.00027302
0.000281473
0.000290254
0.000301782
0.000312117
0.000317985
0.000313455
0.000301407
0.00028328
0.000269041
0.000257836
0.000262213
0.000271656
0.000297526
0.000323964
0.000357651
0.000387765
0.000413397
0.00043557
0.000450655
0.00046534
0.000472808
0.000480602
0.000481405
0.000485846
0.000483328
0.000489357
0.000483261
0.000494134
0.000486014
0.000516157
0.00054396
0.50304
0.489891
0.452133
0.401919
0.3497
0.301173
0.258788
0.222983
0.193163
0.16839
0.147727
0.130365
0.115653
0.103084
0.0922593
0.0828712
0.0746765
0.0674823
0.0611342
0.055507
0.0504983
0.0460239
0.0420134
0.0384081
0.0351582
0.0322216
0.0295621
0.0271486
0.0249544
0.0229561
0.0211334
0.0194685
0.0179457
0.0165512
0.0152727
0.0140996
0.013022
0.0120315
0.0111202
0.0102813
0.00950842
0.00879607
0.00813909
0.00753291
0.00697332
0.00645657
0.00597919
0.00553807
0.0051303
0.00475335
0.00440475
0.00408239
0.00378417
0.0035083
0.00325299
0.0030167
0.0027979
0.00259522
0.00240737
0.00223306
0.00207125
0.00192065
0.00178055
0.0016497
0.0015277
0.00141314
0.00130555
0.00120312
0.00110573
0.00101254
0.000925971
0.000846814
0.000779963
0.00072556
0.000685666
0.000652025
0.000617322
0.000572807
0.000523691
0.000476213
0.000441651
0.000413097
0.000386329
0.000359127
0.00036154
0.000379144
0.000399503
0.000416846
0.00042728
0.000438196
0.000450185
0.00046617
0.000479395
0.000484054
0.000472883
0.000451343
0.000423977
0.000405357
0.000394249
0.000408068
0.000429045
0.000473225
0.000515751
0.000566355
0.00060951
0.000643697
0.000672993
0.000691092
0.000709828
0.000717295
0.000726568
0.000725126
0.000731066
0.000725439
0.000735313
0.00072341
0.000742459
0.000725857
0.000776754
0.000816402
0.4869
0.482185
0.464088
0.434316
0.397813
0.358875
0.320587
0.284845
0.252564
0.223989
0.198977
0.177193
0.15824
0.141727
0.1273
0.114649
0.103516
0.0936794
0.0849578
0.0771976
0.0702704
0.064068
0.0584992
0.0534864
0.0489632
0.0448729
0.0411666
0.0378019
0.0347421
0.0319552
0.029413
0.027091
0.0249673
0.0230228
0.0212405
0.0196053
0.0181037
0.0167236
0.0154543
0.0142862
0.0132103
0.012219
0.011305
0.0104619
0.00968387
0.00896565
0.00830235
0.00768962
0.00712341
0.00660011
0.00611631
0.00566902
0.00525532
0.00487267
0.00451859
0.0041909
0.00388749
0.00360645
0.00334599
0.00310431
0.00288003
0.00267133
0.00247735
0.0022963
0.00212781
0.00196985
0.00182192
0.00168112
0.0015473
0.00141859
0.00129844
0.00118736
0.00109295
0.00101554
0.000959565
0.000913088
0.000866252
0.000805016
0.000737138
0.000670671
0.000623029
0.000583286
0.000546125
0.000513247
0.000521093
0.000548396
0.000576189
0.000597786
0.000609138
0.0006219
0.000636667
0.000656486
0.000671349
0.000672603
0.000652618
0.000620015
0.000583567
0.000562318
0.000554602
0.000581863
0.000618174
0.000683867
0.000744566
0.000812793
0.000868856
0.000910208
0.000945565
0.000965013
0.00098684
0.000992718
0.00100273
0.000997747
0.00100518
0.000995243
0.00100973
0.000990052
0.00101915
0.000991186
0.00106565
0.00111704
0.472752
0.467151
0.456296
0.438479
0.414818
0.387186
0.357471
0.327303
0.297904
0.270081
0.244294
0.220739
0.199431
0.180275
0.163113
0.147762
0.134034
0.121752
0.110748
0.100877
0.0920051
0.084018
0.0768143
0.0703057
0.0644149
0.0590744
0.0542251
0.0498151
0.0457991
0.0421368
0.0387929
0.0357362
0.0329388
0.0303761
0.0280261
0.0258693
0.0238883
0.0220673
0.0203922
0.0188504
0.0174305
0.0161221
0.0149158
0.0138032
0.0127765
0.0118289
0.0109538
0.0101456
0.00939886
0.00870884
0.008071
0.00748138
0.00693613
0.00643186
0.0059653
0.00553353
0.00513379
0.00476352
0.00442041
0.00410203
0.00380665
0.00353182
0.00327652
0.00303832
0.00281699
0.00260966
0.00241592
0.00223152
0.00205636
0.00188727
0.00172896
0.00158143
0.00145555
0.00135161
0.00127701
0.00121535
0.00115428
0.00107361
0.000984457
0.000896472
0.000834035
0.000781152
0.00073175
0.000696899
0.000711062
0.000748862
0.000783602
0.000808462
0.000819567
0.000833401
0.000850252
0.000872916
0.000887898
0.000883641
0.000853173
0.000808697
0.00076402
0.000742317
0.000741256
0.000785506
0.000840236
0.000929661
0.00100982
0.00109566
0.0011641
0.00121108
0.00125146
0.00127067
0.00129474
0.00129753
0.00130768
0.00129793
0.00130695
0.00129144
0.00131126
0.00128184
0.00132247
0.00128062
0.00137961
0.00144219
0.461504
0.453244
0.44347
0.43047
0.413972
0.394418
0.372539
0.349178
0.325152
0.301157
0.277746
0.255322
0.234152
0.214389
0.196096
0.179273
0.163871
0.149815
0.137013
0.125367
0.114779
0.105153
0.0963991
0.0884348
0.081184
0.0745775
0.068553
0.0630545
0.0580314
0.0534385
0.0492353
0.0453854
0.0418561
0.0386183
0.0356454
0.032914
0.0304027
0.0280925
0.0259659
0.0240074
0.0222028
0.0205392
0.0190049
0.0175893
0.0162829
0.0150767
0.0139628
0.0129339
0.0119832
0.0111047
0.0102927
0.00954199
0.00884785
0.0082059
0.00761199
0.00706238
0.00655357
0.00608225
0.00564556
0.00524032
0.0048644
0.00451463
0.00418984
0.00388685
0.00360558
0.00334221
0.00309646
0.00286253
0.00264051
0.00242568
0.00222426
0.00203553
0.00187404
0.00173982
0.00164359
0.00156377
0.00148573
0.00138248
0.00126933
0.00115715
0.00107794
0.00100959
0.000945753
0.000913199
0.000934179
0.000982479
0.00102304
0.00104979
0.00105927
0.00107317
0.0010911
0.00111527
0.00112869
0.001117
0.00107491
0.00101839
0.000966809
0.000946958
0.000955572
0.00101964
0.00109505
0.00120942
0.0013096
0.00141243
0.00149248
0.00154348
0.00158791
0.00160538
0.00163098
0.00162928
0.00163913
0.0016234
0.00163412
0.00161174
0.00163746
0.00159647
0.00164953
0.00159185
0.0017144
0.00178703
0.452215
0.441883
0.431347
0.419555
0.406042
0.390766
0.373907
0.355772
0.336732
0.31717
0.297447
0.277883
0.258748
0.240261
0.222582
0.205824
0.190056
0.175308
0.161581
0.148854
0.137088
0.126237
0.116244
0.107054
0.0986085
0.0908505
0.0837259
0.077183
0.0711739
0.0656537
0.0605813
0.0559185
0.0516306
0.0476859
0.0440553
0.0407123
0.037633
0.0347954
0.0321795
0.0297672
0.0275419
0.0254884
0.0235928
0.0218426
0.0202261
0.0187328
0.0173531
0.0160781
0.0148995
0.0138102
0.012803
0.0118718
0.0110106
0.010214
0.00947701
0.00879493
0.00816348
0.0075785
0.00703651
0.0065335
0.00606691
0.00563271
0.00522959
0.00485348
0.00450449
0.0041777
0.00387305
0.00358301
0.00330799
0.00304154
0.00279167
0.00255668
0.00235521
0.00218661
0.00206522
0.00196363
0.00186529
0.00173587
0.00159578
0.00145653
0.00135821
0.00127168
0.0011909
0.00116529
0.00119282
0.0012508
0.00129544
0.00132234
0.00132853
0.00134116
0.00135882
0.00138287
0.00139299
0.00137219
0.00131781
0.00124951
0.00119258
0.00117669
0.00119748
0.00128325
0.00138074
0.00152026
0.00164039
0.00175913
0.00184989
0.0019033
0.00195094
0.00196527
0.00199186
0.00198438
0.00199358
0.00197066
0.00198317
0.0019526
0.0019846
0.00193039
0.00199604
0.00192136
0.00206463
0.0021455
0.444196
0.432533
0.421081
0.409254
0.39669
0.383255
0.368962
0.353907
0.338232
0.322105
0.305695
0.289171
0.272695
0.25642
0.240478
0.22499
0.210051
0.195741
0.182113
0.169206
0.157038
0.145613
0.134922
0.124946
0.115658
0.107028
0.0990219
0.0916024
0.0847331
0.0783778
0.0725008
0.0670682
0.0620474
0.0574078
0.0531206
0.0491592
0.0454986
0.0421159
0.0389895
0.0361
0.0334289
0.0309596
0.0286764
0.0265652
0.0246128
0.0228071
0.021137
0.0195922
0.0181632
0.0168414
0.0156186
0.0144875
0.0134409
0.0124726
0.0115764
0.0107468
0.00997872
0.00926699
0.00860749
0.0079953
0.0074274
0.00689877
0.00640797
0.00594987
0.00552481
0.00512661
0.00475555
0.00440217
0.00406749
0.00374305
0.00343904
0.00315242
0.00290627
0.00269875
0.0025481
0.00242046
0.00229789
0.00213833
0.00196811
0.00179863
0.00167852
0.00157071
0.00147014
0.00145598
0.00148896
0.00155498
0.00160138
0.00162624
0.00162713
0.00163672
0.00165242
0.00167445
0.00167953
0.0016482
0.00158123
0.00150165
0.00144082
0.00143047
0.00146521
0.00157349
0.00169353
0.00185745
0.00199697
0.00213019
0.00223078
0.00228507
0.00233523
0.00234515
0.00237236
0.00235791
0.00236622
0.00233486
0.00234915
0.00230911
0.00234741
0.00227877
0.00235619
0.00226428
0.00242375
0.00251034
0.437108
0.424591
0.412432
0.400299
0.387939
0.375213
0.36209
0.3486
0.334809
0.320797
0.306644
0.292425
0.278214
0.264084
0.250104
0.23634
0.222859
0.209721
0.196983
0.184692
0.172889
0.161606
0.150864
0.140677
0.131047
0.121974
0.113446
0.105451
0.0979688
0.0909791
0.0844587
0.0783834
0.0727284
0.067469
0.0625808
0.0580402
0.0538244
0.0499119
0.0462819
0.042915
0.0397928
0.036898
0.0342146
0.0317273
0.0294222
0.0272863
0.0253072
0.0234739
0.0217756
0.0202027
0.0187461
0.0173973
0.0161484
0.0149921
0.0139213
0.0129296
0.012011
0.0111595
0.0103703
0.00963744
0.00895746
0.00832423
0.00773616
0.00718692
0.00667711
0.0061991
0.00575366
0.00532927
0.00492779
0.0045386
0.0041744
0.00383048
0.00353462
0.00328318
0.00309856
0.00293994
0.00278869
0.00259468
0.00239085
0.00218764
0.00204263
0.0019101
0.00179054
0.00178762
0.00182404
0.00189565
0.00194095
0.00196111
0.00195423
0.00195854
0.00197017
0.00198803
0.00198641
0.00194334
0.00186369
0.00177323
0.00170959
0.00170552
0.00175501
0.00188541
0.00202763
0.00221434
0.00237233
0.00251837
0.00262808
0.00268183
0.00273401
0.00273836
0.002766
0.00274356
0.00275077
0.00270975
0.00272557
0.00267492
0.00271909
0.00263537
0.00272265
0.00261424
0.00278409
0.00287312
0.430776
0.417681
0.405018
0.39258
0.380194
0.367738
0.355157
0.34245
0.329651
0.316808
0.303975
0.291196
0.27851
0.265948
0.253541
0.241311
0.229284
0.217486
0.205942
0.194681
0.183732
0.173121
0.162874
0.153013
0.143556
0.134516
0.125904
0.117721
0.109969
0.102643
0.0957341
0.0892322
0.083124
0.0773948
0.0720282
0.0670075
0.0623154
0.0579346
0.0538479
0.0500384
0.0464895
0.0431854
0.0401107
0.0372509
0.0345921
0.0321212
0.0298257
0.027694
0.0257152
0.0238789
0.0221753
0.0205954
0.0191306
0.0177726
0.0165139
0.0153471
0.0142655
0.0132623
0.012332
0.0114676
0.0106652
0.00991758
0.00922292
0.00857352
0.00797033
0.00740406
0.00687614
0.00637285
0.00589722
0.0054363
0.00500563
0.00459849
0.00424755
0.00394674
0.00372283
0.00352772
0.00334287
0.00310977
0.00286856
0.00262777
0.00245431
0.00229329
0.00216129
0.00216207
0.00219897
0.00227292
0.00231371
0.00232602
0.00230839
0.00230452
0.00230956
0.0023209
0.00231097
0.002255
0.00216259
0.00206131
0.00199528
0.00199712
0.0020611
0.00221203
0.0023753
0.00258242
0.00275773
0.00291487
0.00303325
0.00308524
0.00313908
0.00313687
0.00316488
0.00313367
0.00313954
0.0030877
0.00310449
0.00304237
0.00309134
0.00299265
0.00308681
0.00296346
0.00313709
0.00322465
0.425064
0.411566
0.398543
0.385856
0.373386
0.36103
0.348726
0.33645
0.324209
0.312033
0.299956
0.288016
0.276243
0.264662
0.253289
0.242136
0.231208
0.220507
0.210038
0.199805
0.189813
0.18007
0.170588
0.161379
0.152455
0.14383
0.135515
0.127522
0.119857
0.112527
0.105536
0.098883
0.092567
0.0865833
0.0809255
0.0755855
0.0705537
0.0658195
0.0613715
0.0571978
0.0532857
0.0496228
0.0461964
0.0429941
0.0400034
0.0372128
0.0346105
0.0321856
0.0299274
0.0278259
0.0258712
0.0240541
0.0223659
0.0207979
0.0193423
0.0179909
0.0167368
0.0155722
0.0144915
0.0134863
0.0125528
0.011682
0.0108725
0.0101147
0.00941019
0.0087477
0.00812956
0.00753971
0.00698272
0.00644313
0.00593972
0.00546334
0.00505176
0.00469573
0.00442671
0.0041891
0.00396535
0.00368828
0.00340563
0.00312303
0.00291715
0.00272364
0.00258286
0.00258053
0.00261406
0.00268629
0.00271869
0.00271944
0.00268748
0.00267188
0.00266731
0.00266949
0.00264962
0.00257958
0.00247408
0.00236142
0.00229253
0.00229866
0.00237577
0.0025445
0.00272706
0.00295166
0.00314307
0.00330964
0.00343653
0.00348582
0.00354111
0.00353154
0.00355994
0.00351947
0.00352368
0.00346008
0.0034768
0.00340273
0.00345481
0.00334209
0.00343927
0.00330311
0.00347371
0.00355557
0.41988
0.406096
0.392813
0.379932
0.367368
0.355041
0.342889
0.330876
0.31899
0.307238
0.295639
0.28422
0.273005
0.262018
0.251276
0.240792
0.23057
0.220609
0.210907
0.201457
0.192251
0.183284
0.174551
0.166049
0.157778
0.14974
0.141939
0.13438
0.127069
0.120011
0.113213
0.106678
0.100411
0.0944138
0.0886867
0.083229
0.0780386
0.0731117
0.0684435
0.0640279
0.0598578
0.0559256
0.0522228
0.0487404
0.0454694
0.0424005
0.0395243
0.0368317
0.0343133
0.0319603
0.0297638
0.0277151
0.025806
0.0240281
0.0223736
0.0208343
0.0194033
0.0180723
0.0168353
0.0156835
0.0146125
0.0136124
0.0126817
0.0118092
0.0109968
0.0102315
0.00951648
0.00883332
0.00818846
0.0075638
0.00698172
0.0064303
0.00595254
0.0055353
0.00521502
0.00492858
0.00466036
0.00433434
0.00400594
0.00367698
0.00343432
0.00320415
0.0030528
0.00304353
0.00306892
0.00313463
0.00315428
0.00313924
0.0030888
0.00305714
0.00303936
0.00302939
0.00299784
0.00291231
0.00279297
0.00266757
0.00259436
0.00260184
0.00268966
0.00287256
0.00307228
0.00331112
0.00351744
0.00369196
0.00382754
0.00387358
0.00393015
0.00391263
0.00394143
0.00389162
0.00389373
0.00381772
0.00383285
0.00374685
0.00379974
0.00367469
0.00377055
0.00362405
0.00378516
0.00385711
0.41515
0.401159
0.387687
0.374659
0.362011
0.349681
0.337613
0.325769
0.314124
0.30267
0.29141
0.280356
0.269526
0.258935
0.248601
0.238537
0.228753
0.219252
0.210033
0.201091
0.192418
0.184005
0.17584
0.167912
0.160213
0.152733
0.145467
0.13841
0.13156
0.124915
0.118477
0.112246
0.106226
0.100417
0.0948232
0.0894457
0.0842858
0.0793444
0.0746211
0.0701149
0.0658236
0.0617443
0.0578731
0.0542055
0.0507361
0.0474594
0.0443691
0.0414588
0.0387218
0.0361512
0.0337399
0.0314811
0.0293675
0.0273919
0.0255473
0.0238259
0.0222215
0.0207255
0.0193326
0.018033
0.016823
0.0156911
0.0146363
0.0136457
0.0127218
0.0118494
0.011033
0.0102515
0.00951387
0.00879898
0.00813328
0.00750171
0.00695266
0.00646843
0.00609071
0.00574906
0.00543081
0.00505093
0.00467235
0.00429225
0.0040081
0.00373705
0.00357166
0.00355076
0.0035625
0.00361611
0.00361823
0.00358271
0.00350914
0.00345629
0.003421
0.00339542
0.00335018
0.0032474
0.00311286
0.00297247
0.00289243
0.00289722
0.00299244
0.00318532
0.00339992
0.0036498
0.00387
0.00405133
0.00419612
0.0042388
0.00429648
0.00427071
0.00429977
0.00424099
0.00424044
0.00415182
0.0041634
0.00406594
0.00411699
0.00398187
0.00407214
0.00391781
0.00406385
0.00412218
0.410812
0.396671
0.383061
0.369923
0.357207
0.344861
0.33284
0.321106
0.309629
0.298393
0.287387
0.276613
0.266077
0.255787
0.245754
0.23599
0.226505
0.217304
0.208392
0.199767
0.191426
0.183362
0.175566
0.168027
0.160732
0.15367
0.14683
0.140201
0.133773
0.127539
0.121493
0.115628
0.109943
0.104435
0.0991021
0.0939453
0.0889644
0.0841602
0.0795334
0.0750847
0.0708143
0.0667224
0.0628082
0.0590706
0.0555077
0.0521175
0.048897
0.045843
0.0429516
0.040219
0.0376406
0.0352115
0.0329269
0.030781
0.0287688
0.0268833
0.0251197
0.0234699
0.0219295
0.0204885
0.019144
0.0178835
0.0167069
0.0155993
0.0145644
0.0135843
0.0126653
0.0117837
0.0109509
0.0101429
0.00939048
0.0086751
0.00805074
0.00749453
0.0070537
0.00665087
0.00627733
0.00583908
0.00540605
0.00497001
0.00463937
0.00432325
0.0041387
0.00410088
0.00409288
0.00412814
0.00410756
0.00404656
0.00394485
0.00386502
0.00380712
0.00376181
0.0037004
0.00357817
0.00342636
0.00326791
0.00317764
0.00317487
0.00327364
0.00347225
0.00369965
0.00395782
0.00419116
0.00437865
0.00453339
0.00457317
0.00463172
0.00459767
0.00462667
0.00455975
0.00455589
0.0044549
0.00446071
0.0043526
0.00439915
0.00425653
0.0043375
0.00417775
0.0043044
0.00434634
0.406816
0.392566
0.378856
0.365637
0.352868
0.340505
0.328511
0.316849
0.305491
0.294414
0.283603
0.273048
0.262748
0.252703
0.242917
0.233395
0.224145
0.215172
0.206481
0.198074
0.189952
0.182109
0.174542
0.167243
0.160203
0.15341
0.146855
0.140524
0.134407
0.128492
0.122768
0.117227
0.11186
0.10666
0.101621
0.0967379
0.0920075
0.0874274
0.0829958
0.0787119
0.0745753
0.0705859
0.0667437
0.0630487
0.0595008
0.0560999
0.0528453
0.0497364
0.0467719
0.0439504
0.0412701
0.0387286
0.0363235
0.0340512
0.0319089
0.0298913
0.0279956
0.0262145
0.0245455
0.0229786
0.0215127
0.0201343
0.0188448
0.0176275
0.0164875
0.0154044
0.0143866
0.0134073
0.012481
0.0115804
0.0107411
0.00994077
0.00923905
0.00860756
0.00809918
0.00763026
0.00719702
0.00669677
0.00620556
0.00570911
0.00532689
0.00496161
0.00475138
0.00469112
0.0046571
0.0046672
0.00461842
0.0045268
0.00439192
0.00427888
0.00419244
0.00412247
0.00404177
0.0038974
0.00372556
0.00354539
0.00344085
0.00342543
0.00352373
0.00372436
0.00396302
0.00422764
0.00447375
0.00466742
0.00483304
0.0048709
0.00493003
0.00488792
0.0049163
0.00484241
0.00483459
0.00472186
0.00471972
0.00460195
0.0046417
0.00449418
0.00456311
0.00440018
0.00450455
0.00452853
0.403119
0.388792
0.37501
0.361733
0.348924
0.336548
0.32457
0.312958
0.301684
0.290726
0.280063
0.269681
0.259571
0.249728
0.24015
0.230836
0.221788
0.21301
0.204504
0.196272
0.188317
0.180635
0.173226
0.166084
0.159204
0.152578
0.146197
0.140052
0.134132
0.128427
0.122925
0.117616
0.112489
0.107535
0.102745
0.09811
0.0936231
0.0892782
0.0850701
0.0809946
0.0770485
0.0732294
0.0695355
0.0659657
0.0625193
0.059196
0.0559956
0.0529182
0.0499639
0.0471327
0.0444247
0.0418393
0.0393764
0.0370343
0.0348127
0.0327079
0.0307195
0.0288416
0.027074
0.0254073
0.0238423
0.0223654
0.0209798
0.0196674
0.0184352
0.0172602
0.0161531
0.0150842
0.0140713
0.0130837
0.0121616
0.0112789
0.0105009
0.00979359
0.00921551
0.00867757
0.00818179
0.00761746
0.00706551
0.00650509
0.00606634
0.00564804
0.0054046
0.00531663
0.00525068
0.00522868
0.0051459
0.00501856
0.00484586
0.00469348
0.00457184
0.00447144
0.00436745
0.0041978
0.00400259
0.00379682
0.00367372
0.003641
0.00373522
0.00393537
0.00418456
0.00445512
0.00471411
0.0049147
0.00509217
0.00512962
0.00518896
0.00513923
0.00516628
0.00508673
0.00507446
0.00495085
0.0049389
0.00481243
0.00484371
0.00469368
0.00474901
0.00458491
0.00466555
0.00467125
0.399686
0.385304
0.371472
0.358155
0.345319
0.332934
0.320968
0.309392
0.298182
0.287312
0.276763
0.266516
0.25656
0.246883
0.23748
0.228345
0.219475
0.210869
0.202529
0.194454
0.186645
0.1791
0.171819
0.164799
0.158035
0.151523
0.145256
0.139227
0.133429
0.127851
0.122485
0.117321
0.11235
0.107561
0.102944
0.0984915
0.0941927
0.09004
0.0860256
0.0821426
0.078385
0.0747475
0.0712259
0.0678164
0.0645164
0.0613237
0.0582368
0.0552548
0.0523775
0.0496046
0.0469368
0.0443739
0.0419172
0.0395659
0.0373217
0.0351821
0.0331493
0.0312181
0.0293911
0.0276593
0.0260266
0.0244788
0.023022
0.0216366
0.0203322
0.0190831
0.0179031
0.0167592
0.0156728
0.0146096
0.0136143
0.0126567
0.0118079
0.0110282
0.0103817
0.00977499
0.00921642
0.00858838
0.00797511
0.00734891
0.00684941
0.00637458
0.00608975
0.00596957
0.00586695
0.00580646
0.00568377
0.00551577
0.00530142
0.0051044
0.00494065
0.0048032
0.00467093
0.00447253
0.00425021
0.00401523
0.00386962
0.00381616
0.00390361
0.00410252
0.00436256
0.00464008
0.00491259
0.00512153
0.00531177
0.0053506
0.00540982
0.00535304
0.00537798
0.00529401
0.00527703
0.00514347
0.0051204
0.00498605
0.00500796
0.00485747
0.00489869
0.00473516
0.00479195
0.00478009
0.396485
0.382067
0.368202
0.354858
0.342007
0.329617
0.317662
0.306116
0.294953
0.284152
0.273691
0.263552
0.253718
0.244178
0.234921
0.225938
0.217223
0.208772
0.200582
0.19265
0.184977
0.177559
0.170395
0.163483
0.15682
0.150402
0.144223
0.138279
0.132563
0.127068
0.121787
0.116711
0.111834
0.107145
0.102635
0.0982975
0.0941219
0.0901
0.0862235
0.0824843
0.078875
0.0753886
0.0720186
0.0687596
0.0656063
0.0625547
0.0596012
0.0567428
0.053978
0.0513048
0.0487232
0.046232
0.0438328
0.0415243
0.0393092
0.0371852
0.0351562
0.0332174
0.0313739
0.0296168
0.0279529
0.0263676
0.0248703
0.0234399
0.0220891
0.02079
0.0195593
0.0183611
0.0172204
0.0160991
0.015046
0.014027
0.0131181
0.0122745
0.0115656
0.0108945
0.0102766
0.00958874
0.00891657
0.00822561
0.00766276
0.00712854
0.00679385
0.00663804
0.00649598
0.00639238
0.00622429
0.00601081
0.0057521
0.00550696
0.0052947
0.00511313
0.00494649
0.00471563
0.00446243
0.00419544
0.00402427
0.00394852
0.00402796
0.00422685
0.00449918
0.00478609
0.00507318
0.00529239
0.00549619
0.00553827
0.00559715
0.0055339
0.00555605
0.00546865
0.00544697
0.00530429
0.00526942
0.00512785
0.00514014
0.00499081
0.00501827
0.00485669
0.0048905
0.00486245
0.393492
0.379051
0.365166
0.351807
0.338947
0.326559
0.314616
0.303095
0.291971
0.281225
0.270833
0.260779
0.251045
0.241616
0.23248
0.223626
0.215045
0.20673
0.198674
0.190874
0.183327
0.176028
0.168976
0.162168
0.155599
0.149268
0.14317
0.137299
0.131651
0.126221
0.121002
0.115987
0.11117
0.106543
0.102099
0.0978296
0.0937277
0.0897853
0.0859943
0.0823473
0.0788364
0.0754544
0.0721944
0.0690494
0.0660135
0.0630808
0.0602464
0.0575055
0.0548549
0.0522906
0.0498116
0.0474146
0.0451006
0.0428667
0.0407159
0.0386447
0.0366579
0.0347501
0.0329283
0.031183
0.0295235
0.0279346
0.0264288
0.0249834
0.023615
0.0222927
0.0210372
0.0198094
0.0186379
0.017481
0.016391
0.0153293
0.0143764
0.0134827
0.0127226
0.0119968
0.0113277
0.0105884
0.00986373
0.00911307
0.00848732
0.00789206
0.00749907
0.00730531
0.00712349
0.0069755
0.00675797
0.00649436
0.00618962
0.00589563
0.00563021
0.00539762
0.00518958
0.00492243
0.00463489
0.00433448
0.0041362
0.00403893
0.00411088
0.00431286
0.00459979
0.00489951
0.00520247
0.00543401
0.00565188
0.0056989
0.00575734
0.0056882
0.00570706
0.0056169
0.00559072
0.00543968
0.00539289
0.00524461
0.00524749
0.00510048
0.00511503
0.00495635
0.00496866
0.00492603
0.390682
0.37623
0.362335
0.34897
0.336109
0.323727
0.311798
0.300299
0.28921
0.278508
0.268174
0.258188
0.248535
0.239198
0.230162
0.221417
0.21295
0.204753
0.196816
0.189135
0.181703
0.174516
0.16757
0.16086
0.154384
0.148138
0.142117
0.136318
0.130735
0.125364
0.120199
0.115235
0.110465
0.105884
0.101484
0.09726
0.093204
0.0893095
0.0855695
0.0819771
0.0785253
0.0752072
0.0720161
0.0689452
0.0659885
0.0631393
0.0603926
0.0577422
0.0551842
0.0527131
0.0503269
0.0480203
0.0457938
0.0436423
0.0415686
0.0395671
0.0376434
0.03579
0.0340154
0.0323085
0.0306809
0.0291158
0.0276288
0.0261951
0.0248351
0.0235152
0.0222601
0.0210277
0.0198501
0.0186821
0.0175783
0.0164965
0.0155195
0.014594
0.0137986
0.0130326
0.0123252
0.0115481
0.0107818
0.0099815
0.00929804
0.00864232
0.00818319
0.00794998
0.00773021
0.00754138
0.00727364
0.00695558
0.00660364
0.00626342
0.0059434
0.00565416
0.00539708
0.00508975
0.00476507
0.00443161
0.00420668
0.00409112
0.00415787
0.00436737
0.00467167
0.00498787
0.00530796
0.00555364
0.00578571
0.005839
0.00589705
0.0058226
0.00583784
0.00574533
0.00571494
0.00555622
0.00549779
0.00534326
0.00533715
0.00519318
0.00519582
0.00504053
0.00503315
0.00497744
0.388038
0.373583
0.359686
0.346322
0.333466
0.321093
0.309179
0.297703
0.286644
0.275981
0.265695
0.255767
0.24618
0.236919
0.227967
0.219313
0.210944
0.202848
0.195016
0.18744
0.180113
0.173028
0.166181
0.159566
0.153179
0.147015
0.141071
0.135342
0.129824
0.124511
0.1194
0.114484
0.109758
0.105217
0.100855
0.0966665
0.0926447
0.0887836
0.0850771
0.081519
0.0781031
0.074823
0.0716729
0.0686461
0.0657374
0.06294
0.0602492
0.0576584
0.0551641
0.0527595
0.0504427
0.0482068
0.0460522
0.0439718
0.0419685
0.0400345
0.0381756
0.0363822
0.0346637
0.0330068
0.0314251
0.0298994
0.0284482
0.0270441
0.0257111
0.0244129
0.0231778
0.0219614
0.0207984
0.0196415
0.018546
0.0174662
0.0164863
0.0155488
0.0147367
0.0139483
0.0132188
0.012422
0.0116296
0.0107944
0.0100648
0.00935281
0.00882139
0.00854783
0.00829262
0.00807181
0.00775872
0.00738308
0.00698223
0.00660142
0.00623001
0.0058812
0.00556747
0.00521603
0.00485237
0.00448821
0.00423934
0.00411091
0.00417616
0.00439811
0.00472242
0.00505834
0.00539645
0.00565751
0.0059035
0.00596395
0.00602177
0.0059426
0.00595406
0.00585941
0.00582509
0.00565939
0.00558986
0.00542953
0.00541489
0.00527427
0.00526597
0.00511414
0.00508893
0.00502139
0.385542
0.37109
0.357198
0.343841
0.330994
0.318634
0.306738
0.295285
0.284253
0.273625
0.263381
0.253502
0.243972
0.234774
0.225893
0.217315
0.209028
0.20102
0.193279
0.185796
0.178562
0.171571
0.164815
0.158288
0.151985
0.145902
0.140033
0.134373
0.128919
0.123665
0.118607
0.11374
0.109058
0.104557
0.100232
0.0960765
0.0920853
0.0882527
0.0845733
0.0810412
0.0776508
0.0743962
0.0712723
0.0682728
0.065393
0.0626265
0.0599693
0.0574146
0.0549596
0.0525969
0.0503253
0.0481369
0.0460326
0.0440037
0.0420536
0.0401726
0.0383671
0.0366255
0.0349578
0.0333487
0.0318132
0.0303293
0.0289187
0.0275505
0.0262526
0.0249854
0.0237809
0.022593
0.021458
0.0203277
0.0192566
0.0181966
0.0172318
0.0162998
0.0154887
0.0146959
0.0139608
0.0131647
0.0123647
0.0115125
0.0107546
0.00999604
0.0093892
0.00907552
0.00878584
0.00854595
0.00820002
0.00776649
0.00731327
0.00689912
0.00648495
0.00607792
0.00570092
0.00530144
0.00489791
0.00450735
0.00423939
0.00410506
0.00417335
0.00441224
0.00475856
0.00511651
0.00547303
0.00575007
0.0060093
0.00607743
0.00613522
0.00605198
0.00605957
0.0059629
0.00592485
0.00575293
0.00567297
0.00550735
0.00548451
0.00534729
0.00532885
0.0051803
0.00513903
0.00506065
0.383178
0.368736
0.354854
0.341508
0.328675
0.316331
0.304454
0.293023
0.282019
0.271423
0.261216
0.25138
0.241898
0.232754
0.223934
0.215422
0.207205
0.199272
0.191609
0.184208
0.177057
0.170149
0.163476
0.157031
0.150808
0.1448
0.139003
0.133411
0.12802
0.122825
0.11782
0.113003
0.108366
0.103906
0.0996179
0.095496
0.0915354
0.0877307
0.0840769
0.0805683
0.0772002
0.0739666
0.070863
0.0678834
0.0650238
0.0622776
0.0596419
0.0571095
0.0546786
0.0523413
0.0500975
0.0479384
0.0458658
0.04387
0.0419551
0.0401102
0.0383422
0.036638
0.0350085
0.0334363
0.0319382
0.0304892
0.0291141
0.0277782
0.0265135
0.0252773
0.0241042
0.0229481
0.0218446
0.0207477
0.0197089
0.0186781
0.0177403
0.0168254
0.016028
0.0152457
0.0145177
0.0137406