/*--------------------------------*- C++ -*----------------------------------*\
| =========                 |                                                 |
| \\      /  F ield         | OpenFOAM: The Open Source CFD Toolbox           |
|  \\    /   O peration     | Version:  2412                                  |
|   \\  /    A nd           | Website:  www.openfoam.com                      |
|    \\/     M anipulation  |                                                 |
\*---------------------------------------------------------------------------*/
FoamFile
{
    version     2.0;
    format      ascii;
    arch        "LSB;label=32;scalar=64";
    class       volVectorField;
    location    "0.22";
    object      ddtCorrDdt0(U);
}
// * * * * * * * * * * * * * * * * * * * * * * * * * * * * * * * * * * * * * //

dimensions      [0 1 -2 0 0 0 0];

internalField   nonuniform List<vector> 
12600
(
(522.039 0 599.015)
(998.877 -6.11513e-17 228.94)
(546.613 -3.56669e-17 74.2419)
(298.752 0 66.6336)
(234.977 7.53585e-19 80.0825)
(218.631 0 85.5159)
(199.537 6.466e-17 85.2904)
(180.363 0 84.5075)
(160.155 0 80.2783)
(150.036 0 73.8769)
(112.735 0 30.0142)
(77.9359 9.43681e-17 19.3081)
(64.5913 5.61104e-17 17.5176)
(55.841 0 15.4564)
(50.8475 1.0033e-17 13.5975)
(46.7304 0 13.8327)
(39.6382 -9.75866e-18 12.0284)
(39.2734 0 10.5905)
(31.4515 7.38373e-17 9.57812)
(27.9266 0 9.20327)
(29.5845 0 8.72448)
(21.3956 0 6.37155)
(23.3668 4.971e-16 7.3937)
(23.6949 -4.73585e-16 6.14082)
(15.9254 1.03808e-17 3.00889)
(25.654 2.60319e-16 6.84742)
(20.6349 0 -1.23638)
(15.7358 0 -0.955512)
(20.2673 0 5.28987)
(26.1683 -4.0335e-16 5.5947)
(22.6353 -6.49323e-16 -3.60563)
(-15.7788 0 -15.8653)
(-7.32957 0 21.8286)
(113.028 -1.88377e-16 70.7212)
(73.4051 5.04763e-16 -21.8971)
(-73.4736 0 -77.0373)
(-54.0017 0 -15.9402)
(29.2748 -9.24532e-16 30.2355)
(23.0427 0 13.0272)
(34.4601 9.22304e-17 27.4978)
(76.4746 3.71934e-16 26.0623)
(-43.9583 3.0996e-16 -60.3028)
(-59.0138 0 -3.47642)
(59.9169 -1.71402e-15 72.1565)
(60.2022 -5.24644e-16 36.0334)
(26.218 3.48879e-16 9.37129)
(-6.57121 -1.10425e-16 -4.71457)
(15.9537 0 20.0806)
(37.1017 2.29724e-16 20.8213)
(17.3602 2.08743e-16 10.0184)
(5.51803 0 8.36614)
(2.91065 -5.42554e-18 10.7588)
(-0.662693 -5.46527e-16 9.58003)
(-2.23885 0 8.10355)
(-3.1172 1.56393e-15 5.91172)
(-0.279309 0 6.31837)
(-3.66466 0 -0.683066)
(24.8935 1.07866e-16 16.6255)
(34.313 3.6055e-17 1.63599)
(26.9695 -2.32177e-15 -5.56991)
(23.7715 2.417e-15 -5.78777)
(24.6824 -5.12465e-15 -5.56329)
(25.1423 0 -5.52002)
(13.7719 -5.64516e-15 -1.4457)
(9.28606 -5.41981e-15 2.92902)
(12.875 1.13139e-14 0.69298)
(24.6175 -5.77146e-15 -8.11453)
(44.3675 0 -19.0629)
(52.9005 0 -24.5345)
(46.5092 0 -20.4292)
(23.8954 0 -6.44941)
(1.70371 0 17.7336)
(-33.0839 1.53348e-14 29.7544)
(-60.7095 -1.57452e-14 42.2539)
(-55.5099 0 35.9312)
(-33.643 0 22.8741)
(-14.2371 -1.65399e-14 11.5923)
(-1.40174 -5.68124e-18 3.60266)
(3.64145 -3.37445e-14 0.394452)
(5.17123 0 0.682116)
(3.39197 0 1.43114)
(5.20411 0 2.87564)
(9.23839 -2.94995e-17 -0.74756)
(14.3347 0 -5.34692)
(14.9771 0 -6.2013)
(9.44546 -2.85709e-14 -3.88845)
(4.35941 -2.0694e-17 1.62737)
(0.108175 0 3.53152)
(-0.67628 0 3.68691)
(-0.364075 5.06256e-14 3.65441)
(0.206731 4.9155e-14 2.68205)
(1.72483 4.74856e-14 1.76288)
(3.61577 4.58808e-14 0.88403)
(4.26687 -2.46761e-17 -0.0104051)
(3.92221 -1.95181e-17 -0.284088)
(3.20328 -4.07066e-14 0.203823)
(2.7348 0 2.5461)
(0.511503 0 1.7314)
(-0.99511 0 2.33471)
(-1.90091 -1.38006e-13 2.65412)
(-2.29029 6.60642e-14 2.80843)
(-2.31709 -6.30963e-14 2.73989)
(-1.96516 -6.01794e-14 2.37854)
(-1.76321 0 2.01993)
(-1.08773 0 1.66929)
(-0.783679 0 1.4756)
(-0.446422 -9.79094e-14 1.25631)
(-0.236175 0 1.23189)
(-0.385865 8.78967e-14 0.960014)
(-0.382336 0 0.994171)
(-0.492411 0 0.830173)
(-0.622295 -7.34465e-14 0.804999)
(-0.666129 0 0.761317)
(-0.676651 0 0.782321)
(-1.12922 0 0.790025)
(-0.903803 1.13306e-13 0.72616)
(-1.5445 0 0.924422)
(-1.52001 -9.78575e-14 0.834965)
(-1.58095 0 0.929473)
(-2.39137 2.95217e-19 1.43874)
(588.178 1.36736e-17 1011.81)
(736.265 3.98238e-17 427.229)
(454.214 9.16924e-18 158.697)
(303.343 0 113.552)
(251.107 5.47024e-17 117.243)
(230.332 -6.01686e-17 120.3)
(208.616 -6.74448e-17 117.335)
(187.473 5.82392e-17 114.758)
(163.279 0 107.206)
(133.763 0 98.5078)
(93.1465 0 52.0351)
(76.28 0 38.7265)
(66.2363 0 35.6463)
(57.7161 0 32.7259)
(53.7696 1.83026e-17 29.2163)
(50.085 0 28.8845)
(43.0352 4.64209e-17 27.2238)
(42.6479 0 23.8657)
(35.3483 -1.67679e-16 22.5283)
(32.4664 2.13701e-16 22.5922)
(33.4331 0 21.1255)
(25.8844 2.50975e-16 18.7585)
(28.8686 -2.64745e-16 20.4626)
(27.8541 2.51455e-16 18.2291)
(21.6966 -2.74546e-16 15.1363)
(32.6407 0 22.6766)
(23.7537 2.55782e-16 8.27498)
(18.1876 0 0.359839)
(25.8418 0 11.8319)
(27.3729 0 10.0875)
(14.8364 3.4265e-16 -11.3109)
(-17.8345 0 -31.301)
(34.7283 0 62.078)
(150.66 0 146.161)
(10.3559 0 -89.2287)
(-126.601 0 -176.368)
(-34.4935 0 -20.0075)
(61.531 9.51224e-16 70.6791)
(36.9701 0 30.04)
(61.7542 7.66907e-16 62.4108)
(81.1417 -6.3599e-16 45.7225)
(-86.8551 3.25663e-16 -138.43)
(-17.3764 0 25.559)
(128.15 0 169.681)
(79.4608 8.59368e-16 73.0253)
(31.7255 -3.56219e-16 18.2975)
(-1.2084 1.95364e-16 -3.45622)
(39.4531 0 55.2801)
(47.3107 -4.67577e-17 48.1191)
(10.7395 0 20.5642)
(-7.37976 0 19.455)
(-15.7862 4.57582e-16 24.4554)
(-23.4434 0 24.2302)
(-24.9825 0 21.7389)
(-21.2426 -1.58012e-15 16.8222)
(-9.21466 0 12.2892)
(3.09881 0 -1.19697)
(64.4979 2.95909e-16 38.4838)
(67.4666 -2.05131e-15 -12.6518)
(64.5231 -9.07719e-18 -25.9694)
(58.2124 0 -24.2233)
(58.5823 5.16403e-15 -22.5073)
(58.3806 5.50756e-15 -22.7996)
(27.5196 0 -7.39377)
(15.0624 1.08568e-14 5.62932)
(27.1148 2.46527e-17 -6.56767)
(69.2503 0 -34.5978)
(126.757 -6.27435e-15 -67.8041)
(147.265 0 -78.9355)
(118.886 0 -61.0319)
(48.9105 0 -16.6623)
(-27.1268 0 52.2031)
(-130.069 -3.02883e-14 92.7673)
(-198.271 1.5564e-14 125.163)
(-175.473 0 105.384)
(-110.091 0 66.1051)
(-53.2155 -1.62175e-14 32.9863)
(-13.6288 -7.83015e-18 9.92869)
(3.70274 -6.25891e-18 0.337061)
(8.29985 0 -0.565926)
(5.44732 0 1.24488)
(11.2225 0 4.09116)
(23.4973 -3.79084e-17 -8.66652)
(38.8433 2.87926e-14 -19.5588)
(39.0546 -2.84114e-14 -19.8939)
(23.0063 2.76054e-14 -11.3717)
(5.19534 -2.80437e-17 2.3719)
(-6.50148 2.59044e-14 8.90035)
(-8.93574 0 9.17863)
(-7.90141 -4.866e-14 8.59439)
(-4.63124 0 5.95569)
(0.472449 -4.55301e-14 3.20348)
(5.52249 0 0.705169)
(7.54856 8.48031e-14 -1.57125)
(6.92009 4.07581e-14 -1.65129)
(4.48758 0 0.192055)
(2.38315 0 6.60142)
(-4.15595 7.15498e-14 4.99965)
(-8.09021 -6.88141e-14 6.79345)
(-10.269 1.31255e-13 7.78659)
(-10.9535 -6.27436e-14 8.05698)
(-10.5431 5.98711e-14 7.67912)
(-9.14889 0 6.68343)
(-7.97458 -5.43137e-14 5.73035)
(-6.17261 0 4.70815)
(-5.16513 0 4.10814)
(-4.18108 9.25774e-14 3.50826)
(-3.66153 0 3.31637)
(-3.62359 1.30778e-17 2.88007)
(-3.54624 -7.84137e-14 2.87671)
(-3.69491 0 2.6932)
(-3.84572 0 2.68186)
(-3.98186 0 2.66628)
(-4.00875 -6.10267e-14 2.70673)
(-4.87597 1.13259e-13 2.92767)
(-4.27928 -1.06518e-13 2.65711)
(-5.96493 0 3.44603)
(-5.55813 9.19126e-14 3.13162)
(-6.00942 0 3.46872)
(-8.54541 -1.58978e-13 4.99506)
(380.173 -1.17115e-17 636.158)
(466.922 4.00443e-18 353.021)
(343.175 4.49436e-17 167.792)
(248.927 0 91.8814)
(203.34 4.37129e-17 65.328)
(180.851 4.8864e-18 56.5249)
(158.79 0 50.5367)
(136.693 -5.52697e-17 45.6881)
(113.818 0 40.1595)
(88.1436 -3.98525e-17 36.7674)
(74.3704 0 36.0528)
(64.1537 0 32.1577)
(56.0907 0 29.6344)
(48.7669 0 27.4077)
(46.2062 -2.84095e-17 24.7014)
(42.9464 0 22.6208)
(37.3238 0 23.4911)
(36.8732 0 19.6228)
(31.4197 8.62003e-17 19.3809)
(29.2362 1.34066e-17 20.5856)
(29.567 0 17.856)
(24.7445 1.28173e-17 18.8557)
(27.1929 0 19.717)
(26.1148 -2.71015e-16 17.2989)
(24.5784 0 19.3766)
(31.9205 0 23.2683)
(24.5401 -2.42617e-16 16.6584)
(22.7398 0 9.33318)
(28.9371 0 14.8184)
(25.8889 -4.01698e-16 12.0526)
(14.4395 0 -5.83423)
(2.31712 0 -17.5403)
(66.8087 0 79.7358)
(112.75 0 115.005)
(-62.5095 1.64786e-16 -157.82)
(-107.426 0 -169.522)
(14.9693 0 13.3213)
(69.2807 -3.69244e-16 70.3015)
(39.7214 0 29.2352)
(63.8071 -3.70392e-16 56.9565)
(55.8963 1.68032e-16 25.6247)
(-90.9335 -3.08331e-16 -156.43)
(53.2695 0 91.5492)
(131.093 0 163.204)
(59.0019 -3.05764e-16 51.6217)
(27.1169 0 12.754)
(8.95706 -1.84808e-16 5.90431)
(53.7723 0 78.1996)
(34.8645 8.88977e-17 44.2785)
(-3.81669 0 21.9146)
(-23.5457 0 25.5282)
(-37.0167 0 31.4565)
(-45.9703 5.32423e-16 33.7242)
(-45.7026 0 30.9018)
(-36.4351 0 23.3197)
(-15.8488 0 10.4593)
(17.1814 0 -2.92831)
(94.5983 -3.04972e-15 36.9333)
(93.0655 0 -40.0379)
(98.0741 -2.57675e-18 -50.3)
(87.3955 0 -43.8522)
(84.4172 -2.44504e-15 -40.3526)
(84.4269 -5.19276e-15 -39.7165)
(37.3818 0 -12.521)
(17.3194 -1.03225e-14 2.94607)
(42.7583 -5.33499e-15 -22.4897)
(118.391 0 -70.3222)
(208.272 5.90882e-15 -120.379)
(231.004 0 -126.126)
(171.8 0 -86.5409)
(54.2375 0 -13.9446)
(-68.8767 0 93.5636)
(-227.507 -3.99049e-17 152.508)
(-322.421 -1.46371e-14 192.658)
(-280.818 0 157.829)
(-178.238 0 97.3789)
(-89.1599 -6.33487e-18 47.9042)
(-25.7887 3.12926e-14 13.9797)
(2.99896 1.54738e-14 -0.471888)
(9.96778 0 -3.24719)
(7.09292 0 -1.24853)
(15.577 0 -2.01812)
(37.2357 5.59734e-14 -20.8966)
(61.6419 6.47659e-18 -34.3622)
(59.9175 2.66521e-14 -31.5073)
(33.2982 0 -15.9773)
(3.05346 2.49161e-14 2.26959)
(-14.416 -2.42854e-14 12.4568)
(-17.99 0 12.8663)
(-15.9588 0 11.2318)
(-9.78956 -4.43038e-14 7.29795)
(-1.51678 0 2.83105)
(6.05889 -4.12584e-14 -0.827855)
(9.06882 1.2235e-17 -3.51719)
(7.77623 -3.81986e-14 -2.79609)
(3.56175 3.64537e-14 0.702487)
(-1.65933 0 8.32557)
(-10.6928 -6.69593e-14 8.25253)
(-16.4314 6.43895e-14 11.1012)
(-19.4311 -1.22845e-13 12.5266)
(-20.1547 0 12.6671)
(-19.1602 5.60342e-14 11.8477)
(-16.6781 0 10.3227)
(-14.5112 5.07872e-14 8.92046)
(-11.7086 -4.81887e-14 7.369)
(-10.0947 0 6.44007)
(-8.57608 -8.65366e-14 5.57766)
(-7.86727 0 5.21385)
(-7.58609 -1.55084e-13 4.87536)
(-7.54113 7.32749e-14 4.8143)
(-7.65186 0 4.80472)
(-7.89021 0 4.86923)
(-8.0788 0 4.95309)
(-8.21223 -8.62234e-19 5.02686)
(-9.38621 -1.05792e-13 5.53974)
(-8.50867 9.94929e-14 5.06125)
(-11.1783 0 6.50781)
(-10.3231 8.58328e-14 5.91215)
(-11.1757 0 6.54874)
(-15.1855 -4.90544e-19 8.88728)
(245.049 -1.192e-18 397.652)
(300.804 -5.66242e-18 276.011)
(263.575 -1.74554e-17 163.925)
(215.076 2.59264e-17 94.5746)
(183.001 3.20188e-17 62.8841)
(162.001 9.42577e-17 48.5382)
(140.294 0 41.0859)
(117.574 0 33.8772)
(96.3066 0 28.5192)
(73.6263 3.77472e-17 26.3159)
(62.0015 0 28.3425)
(51.924 0 25.0838)
(44.9075 0 22.5869)
(38.0176 0 19.3903)
(36.6275 0 17.6653)
(33.8351 -4.46088e-17 14.1312)
(28.6444 6.25755e-17 15.2993)
(28.279 0 11.51)
(24.1852 0 11.2685)
(21.6006 -2.04786e-16 12.5661)
(21.8346 2.32829e-16 9.12704)
(18.4718 -2.37679e-16 11.0416)
(19.9808 2.73065e-16 11.3256)
(19.3572 2.5663e-16 8.25051)
(19.74 -2.73841e-16 12.2862)
(23.6679 2.6961e-16 11.0454)
(20.8337 0 11.4634)
(25.5435 -2.44435e-16 14.621)
(27.3931 0 12.7656)
(24.1746 3.80188e-16 11.8314)
(18.8627 0 5.45263)
(25.4247 0 5.71269)
(62.4758 0 52.8622)
(44.3631 -2.223e-16 44.0137)
(-83.7151 -1.55886e-16 -155.163)
(-38.2595 0 -92.3491)
(60.2198 0 51.5848)
(58.5746 3.4916e-16 48.143)
(35.614 0 19.149)
(51.0759 5.85308e-17 30.5378)
(23.6806 6.8798e-17 -6.36286)
(-64.0846 0 -132.393)
(99.3557 0 123.167)
(79.6089 0 80.6951)
(32.2472 0 17.1189)
(22.4665 -1.57285e-16 4.80903)
(15.9752 0 10.1735)
(54.9535 2.89405e-17 85.0813)
(13.5435 -4.21859e-17 30.3952)
(-16.3794 0 25.6947)
(-37.718 0 33.8341)
(-54.3729 0 41.393)
(-64.3287 -5.0232e-16 43.9979)
(-62.1549 6.16485e-16 39.0877)
(-47.8584 1.4184e-15 26.4737)
(-16.9925 0 7.16721)
(31.7816 1.55553e-15 -13.5573)
(113.83 3.48976e-15 12.1598)
(119.982 0 -63.854)
(130.431 4.16449e-15 -70.9185)
(113.714 0 -59.0455)
(104.605 2.31775e-15 -53.9417)
(106.347 4.90604e-15 -50.9762)
(45.6071 0 -13.9748)
(18.8556 4.87642e-15 -3.01511)
(64.4937 5.03623e-15 -41.4248)
(173.842 0 -110.647)
(287.818 0 -171.856)
(299.685 0 -163.666)
(201.629 -6.2925e-15 -96.0437)
(40.091 -6.44455e-15 3.9421)
(-128.125 0 129.693)
(-318.201 1.34633e-14 211.694)
(-424.2 1.3783e-14 252.56)
(-366.336 0 200.628)
(-235.109 0 122.394)
(-120.399 1.43156e-14 59.7066)
(-37.3342 9.59394e-19 17.0626)
(1.81989 0 -1.2515)
(11.8089 0 -4.90317)
(9.89352 0 -3.53924)
(21.0485 0 -10.3661)
(52.8059 5.05695e-18 -32.1424)
(83.0018 -2.53359e-14 -47.6761)
(77.4263 0 -40.7083)
(40.3125 0 -18.3164)
(0.117237 0 4.64308)
(-22.205 -2.27812e-14 16.5349)
(-26.2225 0 17.2152)
(-22.7806 -4.2786e-14 14.5853)
(-14.1168 4.14883e-14 9.00389)
(-3.28112 -4.00195e-14 2.91053)
(5.99327 3.86241e-14 -1.74677)
(9.50214 -7.4391e-14 -4.13782)
(7.09622 3.57489e-14 -2.42599)
(0.834753 -3.41109e-14 2.48055)
(-8.42545 0 9.08094)
(-18.2634 0 12.3806)
(-25.2754 6.02558e-14 16.1357)
(-28.7092 5.74509e-14 17.7613)
(-29.2043 5.49308e-14 17.6961)
(-27.4849 4.84307e-18 16.4262)
(-24.0162 0 14.3259)
(-20.9655 0 12.4377)
(-17.3356 4.50421e-14 10.423)
(-15.2064 0 9.22863)
(-13.294 8.08817e-14 8.14911)
(-12.4293 0 7.71747)
(-12.0587 -2.73475e-18 7.35783)
(-12.0602 0 7.33346)
(-12.2262 6.44272e-14 7.37939)
(-12.6191 -6.03973e-14 7.5431)
(-12.8778 -5.65586e-14 7.67645)
(-13.1729 -3.92483e-19 7.84735)
(-14.6429 0 8.53962)
(-13.528 -9.29137e-14 7.93388)
(-17.1576 -8.62189e-14 9.95588)
(-15.8161 -8.01476e-14 9.04345)
(-17.0643 0 10.0055)
(-22.1886 -6.17461e-19 12.9741)
(162.987 0 268.237)
(211.144 -4.82481e-18 222.495)
(211.751 0 159.31)
(190.297 -2.44961e-17 102.444)
(169.202 -6.93193e-17 71.5078)
(149.142 -4.23818e-17 54.2647)
(127.708 0 44.8935)
(105.476 0 37.3696)
(85.3905 3.82235e-17 30.5115)
(65.2009 3.13815e-17 27.6945)
(53.3307 -2.30182e-17 28.3119)
(43.1022 -3.24028e-17 24.4619)
(37.0275 -4.42235e-18 21.8972)
(30.4596 0 17.6669)
(29.6601 0 16.3266)
(27.4214 8.69239e-17 12.2407)
(22.3377 5.92988e-19 12.8628)
(22.1874 0 9.62033)
(18.9074 -8.84311e-17 8.59425)
(15.8823 -2.00092e-16 9.70289)
(16.8437 -2.20115e-16 6.95192)
(14.0735 0 8.30384)
(15.0287 -2.58128e-16 8.85747)
(15.2001 2.50025e-16 5.60827)
(15.6284 2.58831e-16 9.08153)
(18.3006 -9.32921e-20 5.95646)
(17.1659 0 6.78801)
(21.8202 2.80474e-18 10.7987)
(21.6567 0 6.17615)
(19.9067 3.60047e-16 6.49181)
(19.6328 0 6.14799)
(32.1276 0 13.267)
(38.5782 0 12.4352)
(-3.39514 2.09966e-16 -7.27023)
(-36.6726 0 -63.1249)
(32.2239 0 -10.7376)
(77.7614 0 63.6245)
(41.035 0 24.4491)
(29.8846 -8.0114e-17 9.06703)
(36.6878 9.4426e-17 8.07361)
(-5.90948 0 -41.1947)
(-15.7709 3.23102e-16 -75.159)
(86.1923 0 74.1002)
(32.5293 0 13.1961)
(22.0497 0 1.98865)
(20.3244 1.41012e-17 1.48285)
(20.1381 0 11.9826)
(43.2712 -2.72858e-17 73.7796)
(-2.56704 0 27.5808)
(-26.8121 0 31.8824)
(-50.109 2.693e-16 42.625)
(-68.9744 0 50.9199)
(-79.2889 0 52.6679)
(-74.9255 7.67283e-19 44.7172)
(-55.4271 -1.33596e-15 26.5314)
(-14.9776 0 0.570328)
(52.5707 5.06364e-17 -19.0215)
(120.11 -3.66681e-15 -37.5131)
(146.352 0 -85.809)
(159.925 -1.9598e-15 -88.3385)
(136.506 0 -70.7914)
(119.322 -2.18043e-15 -62.904)
(123.538 -4.61449e-15 -58.064)
(52.5563 0 -13.384)
(23.2415 -4.59268e-15 -9.73288)
(91.802 5.73395e-18 -66.4094)
(233.897 0 -155.684)
(361.512 0 -220.073)
(349.226 0 -187.555)
(207.28 1.18239e-14 -86.9488)
(7.32553 -1.20428e-17 37.0633)
(-196.896 0 164.279)
(-396.232 -1.26748e-14 267.093)
(-504.886 -2.58864e-14 299.51)
(-434.741 0 231.182)
(-282.803 0 139.67)
(-147.982 0 67.509)
(-48.596 -7.33534e-19 18.8488)
(-0.00896396 0 -2.18922)
(13.5198 0 -6.40598)
(13.761 0 -6.18562)
(29.0676 0 -17.9991)
(68.6589 -2.46063e-14 -43.6478)
(102.236 -2.37471e-14 -59.5637)
(91.5861 0 -47.3258)
(44.6062 0 -18.2637)
(-3.76453 0 8.52755)
(-29.7878 -5.00095e-18 21.0653)
(-33.9312 0 21.4613)
(-29.0569 4.00538e-14 17.5557)
(-18.1753 0 10.4868)
(-5.32319 3.74532e-14 3.12737)
(5.10905 0 -1.88)
(8.48724 3.48042e-14 -3.7334)
(4.5894 0 -0.992759)
(-3.35252 0 5.95166)
(-15.9627 0 11.8566)
(-26.6142 0 17.3697)
(-34.6152 -5.63419e-14 21.5899)
(-38.1772 0 23.1784)
(-38.3111 -5.13517e-14 22.7665)
(-35.8209 -4.89782e-14 20.9816)
(-31.4592 0 18.3483)
(-27.596 0 16.0171)
(-23.2851 0 13.643)
(-20.7091 0 12.2455)
(-18.5068 2.36665e-18 11.028)
(-17.5226 0 10.5734)
(-17.1208 1.35374e-13 10.2174)
(-17.1896 0 10.2645)
(-17.4277 -1.20355e-13 10.3597)
(-18.0134 5.64095e-14 10.6553)
(-18.3275 5.2821e-14 10.8214)
(-18.8379 4.97244e-14 11.1358)
(-20.5467 0 11.9521)
(-19.2528 0 11.2801)
(-23.7518 1.61006e-13 13.8094)
(-21.9209 -7.48298e-14 12.5612)
(-23.5558 -6.92896e-14 13.8768)
(-29.3716 6.46917e-14 17.1933)
(118.219 0 208.485)
(161.719 1.68965e-17 188.52)
(175.67 0 151.692)
(170.516 0 111.747)
(157.047 0 81.9344)
(139.665 0 64.1802)
(119.112 0 52.5763)
(97.8367 -3.0966e-17 45.3375)
(78.2299 -3.60628e-17 37.6729)
(59.7797 -5.62668e-17 33.7623)
(46.979 4.09381e-17 32.3175)
(36.7959 3.05797e-17 28.155)
(30.8204 4.17474e-18 24.9451)
(24.0677 0 19.3778)
(23.1517 0 17.3475)
(21.1731 -8.63729e-17 12.7545)
(16.3746 -1.13398e-16 12.8144)
(16.553 0 10.492)
(13.9506 8.34705e-17 8.70864)
(10.8819 1.88863e-16 9.62138)
(12.5932 0 7.95958)
(10.013 2.19947e-16 8.18787)
(10.6659 0 9.23917)
(11.5344 1.42492e-18 6.1817)
(11.4532 -2.39514e-16 8.31581)
(13.9169 -1.05333e-18 5.23285)
(13.4902 0 4.70369)
(17.0029 2.153e-16 7.63594)
(16.6821 -3.65494e-16 2.87367)
(16.7437 -6.78396e-16 4.1653)
(17.9863 -3.00559e-16 4.77468)
(26.9112 0 8.31144)
(22.8432 -1.7438e-16 -5.22578)
(-11.3332 0 -21.0046)
(13.3171 0 14.4962)
(58.0585 0 22.5261)
(56.1085 0 27.0281)
(23.2215 0 3.16389)
(25.4668 1.75449e-17 2.49134)
(24.5627 -5.24495e-17 -3.44512)
(-8.48118 0 -39.962)
(29.8545 -4.33432e-16 -11.361)
(51.8357 0 6.7254)
(17.6069 0 -8.16741)
(19.0436 0 -2.09725)
(18.6921 1.2645e-16 1.15719)
(21.3259 0 13.7449)
(26.6463 0 56.1898)
(-14.2089 0 30.4375)
(-35.5144 0 39.1822)
(-60.3052 -5.11716e-16 51.3209)
(-80.4977 0 59.469)
(-90.6776 0 59.3997)
(-84.0747 -5.47167e-16 47.6722)
(-59.5022 0 23.673)
(-9.0597 0 -8.98951)
(64.5801 -2.88353e-15 -39.626)
(125.391 1.77987e-15 -85.0216)
(172.274 0 -105.695)
(185.679 0 -102.692)
(156.014 0 -79.6386)
(128.79 2.05607e-15 -67.9493)
(136.091 0 -61.7708)
(59.2187 0 -11.7447)
(31.9975 8.62408e-15 -17.9964)
(125.042 -8.90932e-15 -97.2833)
(295.912 0 -204.344)
(424.879 0 -261.633)
(375.528 0 -194.446)
(188.686 -5.5497e-15 -59.6554)
(-38.9474 5.69142e-15 80.608)
(-256.845 1.18e-14 214.033)
(-459.11 1.18908e-14 315.784)
(-564.868 1.21453e-14 335.149)
(-488.134 -1.23081e-14 252.026)
(-322.699 0 150.809)
(-172.534 0 71.9238)
(-59.7132 -1.29154e-14 19.4431)
(-2.52871 0 -3.33754)
(15.1671 0 -8.02345)
(18.4357 0 -9.83082)
(38.6757 0 -25.8018)
(84.1023 0 -55.1805)
(118.892 4.44811e-14 -69.8941)
(102.33 0 -51.5848)
(46.5569 2.12893e-14 -16.0728)
(-8.47316 0 13.2802)
(-37.0306 -3.0589e-18 25.8867)
(-41.1502 -3.83775e-14 25.4268)
(-34.8266 0 20.2815)
(-22.0847 0 11.979)
(-7.81507 0 3.72822)
(3.02355 0 -1.43608)
(5.88796 -3.25598e-14 -2.29216)
(0.600268 0 1.91436)
(-9.34592 0 9.97606)
(-23.995 0 16.7019)
(-35.7052 0 22.9463)
(-44.3382 0 27.3901)
(-47.8092 0 28.7388)
(-47.5037 0 27.9169)
(-44.2311 0 25.5923)
(-39.0953 4.36136e-14 22.4794)
(-34.4891 0 19.7424)
(-29.6418 0 17.0891)
(-26.6672 0 15.5258)
(-24.2741 -7.05947e-14 14.2186)
(-23.1827 0 13.7608)
(-22.8012 -6.32215e-14 13.4198)
(-22.9397 0 13.5459)
(-23.255 7.44932e-20 13.6832)
(-24.0579 0 14.1157)
(-24.3953 -4.93233e-14 14.2954)
(-25.1665 0 14.7781)
(-27.0359 0 15.6639)
(-25.6322 0 14.9719)
(-30.847 -7.51585e-14 17.9205)
(-28.5541 1.39717e-13 16.335)
(-30.5733 1.29367e-13 18.0348)
(-36.5562 6.03885e-14 21.403)
(94.7025 0 175.882)
(130.636 -2.49514e-17 166.902)
(147.425 0 143.003)
(150.503 0 115.75)
(142.339 1.18648e-17 89.1171)
(128.332 1.85714e-17 71.3107)
(110.089 -2.42032e-17 58.1723)
(90.6349 7.69362e-17 49.7863)
(72.3162 0 42.5842)
(55.1979 4.34328e-18 38.044)
(42.0023 -1.81062e-17 35.3684)
(32.0076 0 31.4087)
(25.1323 0 27.5209)
(17.9116 0 21.5234)
(16.2358 0 18.5785)
(14.2521 -2.0821e-18 13.4827)
(10.2537 -1.29913e-18 13.5052)
(10.7301 6.73631e-17 12.4293)
(8.57397 8.00334e-17 10.1788)
(5.8196 0 10.959)
(7.80813 -1.98382e-16 10.0657)
(5.22997 -2.07294e-16 9.14559)
(5.63174 0 10.3311)
(6.98715 1.33754e-18 7.79181)
(6.41972 6.95796e-19 8.58316)
(9.11552 -2.25518e-16 6.343)
(9.27483 0 4.72321)
(11.9526 0 6.62993)
(12.1862 3.44365e-16 2.568)
(13.4788 7.78363e-19 3.94248)
(14.6424 5.61252e-16 3.78046)
(20.3827 0 4.92226)
(15.4793 3.48207e-16 -7.76055)
(-5.2961 0 -15.1423)
(22.5908 0 23.6928)
(50.2225 -9.02344e-17 17.9263)
(30.2479 0 -10.1292)
(16.5137 -4.943e-17 -8.34306)
(22.2353 -2.51675e-18 -2.11178)
(18.7822 1.13519e-16 -8.026)
(8.12566 0 -14.4127)
(47.7983 6.69156e-17 19.4625)
(34.3626 0 -16.2574)
(14.0261 0 -13.1306)
(17.0575 0 -3.0421)
(16.7298 0 2.49511)
(20.1133 0 15.3792)
(7.2962 -2.73121e-16 34.714)
(-23.2846 0 34.8047)
(-42.5052 0 46.4313)
(-67.9452 2.428e-16 59.3723)
(-88.7484 0 66.6159)
(-98.5327 4.30779e-16 63.9813)
(-89.8528 5.16231e-16 48.0729)
(-60.5674 -1.18018e-15 18.5553)
(-3.62597 0 -20.7775)
(71.2609 1.37028e-15 -68.8934)
(141.826 1.6611e-15 -111.871)
(195.219 0 -122.744)
(207.286 0 -114.193)
(173.271 0 -86.0461)
(134.069 -1.93055e-15 -69.8215)
(144.649 0 -62.4525)
(66.5418 0 -10.0328)
(45.5513 -4.04512e-15 -30.0232)
(164.067 8.37166e-15 -133.699)
(356.576 0 -254.85)
(473.311 0 -292.602)
(375.835 0 -181.855)
(149.275 0 -16.2516)
(-91.3488 5.35862e-15 130.358)
(-310.215 -1.10639e-14 259.46)
(-504.916 0 355.503)
(-607.739 0 360.66)
(-530.511 1.15355e-14 265.31)
(-357.176 0 157.098)
(-195.079 1.18023e-14 73.5333)
(-70.9112 -1.2094e-14 18.9542)
(-5.76348 0 -4.76076)
(16.7274 0 -9.91494)
(24.6103 0 -13.1398)
(49.1168 0 -34.2973)
(98.5987 0 -66.415)
(132.762 -2.08195e-14 -78.414)
(109.927 0 -53.4055)
(46.5875 -3.98464e-14 -12.0623)
(-13.5874 0 18.8169)
(-43.9219 -1.88631e-18 30.7451)
(-47.9183 -6.78566e-18 28.9738)
(-40.2306 0 22.7907)
(-26.1713 -3.4008e-14 13.411)
(-11.0423 0 4.7246)
(0.19651 0 0.66756)
(1.75373 6.08892e-14 0.104381)
(-5.37164 0 5.17081)
(-17.2655 0 13.9245)
(-32.918 0 22.2957)
(-45.3721 0 28.9893)
(-54.4176 0 33.415)
(-57.6476 0 34.4016)
(-56.9067 0 33.1376)
(-52.8718 0 30.2689)
(-47.0869 -4.07458e-14 26.7487)
(-41.7835 0 23.6428)
(-36.5152 0 20.795)
(-33.1515 0 19.0869)
(-30.6357 6.59368e-14 17.7419)
(-29.4136 6.2775e-14 17.2787)
(-29.0785 5.9043e-14 16.9739)
(-29.2575 -5.5775e-14 17.1687)
(-29.6362 4.97465e-19 17.3411)
(-30.6448 4.91869e-14 17.912)
(-30.9559 9.21042e-14 18.0736)
(-32.0034 0 18.7431)
(-33.9324 -8.04282e-14 19.6265)
(-32.4827 -7.56163e-14 18.9688)
(-38.1972 0 22.2011)
(-35.4879 -6.52123e-14 20.2956)
(-37.895 -6.03787e-14 22.3937)
(-43.4994 -5.63658e-14 25.4723)
(78.8774 0 150.931)
(104.844 1.40247e-17 146.131)
(121.027 0 130.922)
(127.722 0 110.021)
(124.567 -1.1173e-17 89.2785)
(114.409 -1.7485e-17 73.1266)
(100.611 2.27832e-17 61.0782)
(84.7265 -6.0504e-17 51.7675)
(68.8854 0 45.0827)
(52.8728 -8.48849e-18 40.306)
(40.3421 1.95638e-17 37.9738)
(30.2009 0 34.2017)
(21.9232 5.21057e-18 29.6166)
(13.8141 0 23.9953)
(10.2852 2.83521e-17 20.4169)
(7.85039 4.1112e-17 14.982)
(4.80025 5.17812e-17 15.2379)
(5.05985 -6.34049e-17 15.3498)
(2.96904 -1.51433e-16 12.8343)
(0.751556 0 13.6865)
(2.39639 1.86729e-16 13.1598)
(-0.316528 0 11.2371)
(-0.01777 0 12.338)
(1.4069 -2.11826e-16 10.1337)
(0.645468 4.24066e-16 10.1018)
(3.67679 0 8.88049)
(4.24475 0 6.46781)
(6.45915 0 7.59791)
(7.37155 -3.27527e-16 4.30528)
(9.18142 2.99562e-16 5.05414)
(9.9909 -3.67997e-18 3.84272)
(14.0638 2.2356e-16 4.25368)
(10.7147 -3.57034e-16 -4.96894)
(-0.807983 2.06589e-16 -8.48191)
(20.2002 -2.03193e-16 18.5414)
(38.1702 -5.66109e-18 10.8069)
(21.7282 0 -14.717)
(14.3846 4.64899e-17 -10.3869)
(18.2221 5.36993e-17 -5.52018)
(15.7469 -1.06748e-16 -9.37381)
(14.9033 0 -5.04065)
(42.5817 5.11972e-17 16.7707)
(26.9452 -1.87467e-16 -17.7893)
(12.8238 -5.93021e-17 -12.1947)
(14.8255 3.30935e-17 -2.34678)
(14.3311 0 4.9511)
(15.3859 0 17.0837)
(-6.85217 2.58936e-17 22.1477)
(-28.124 0 39.6211)
(-47.4586 0 53.0453)
(-72.7806 2.37227e-16 66.345)
(-93.6839 -3.42347e-16 72.1752)
(-103.067 -4.04581e-16 66.4658)
(-92.6774 1.27521e-18 46.2797)
(-59.4905 1.63626e-18 11.692)
(2.76133 0 -34.0879)
(84.1423 0 -84.443)
(157.141 -3.0966e-15 -132.073)
(213.589 0 -137.753)
(225.147 0 -123.238)
(189.761 1.69651e-15 -90.4773)
(137.048 0 -69.5013)
(149.259 0 -62.005)
(75.3575 -3.91191e-15 -9.28686)
(64.3041 3.7838e-15 -46.8359)
(207.021 -7.86131e-15 -175.88)
(412.598 0 -303.366)
(502.489 4.36318e-15 -309.069)
(349.686 0 -148.797)
(95.8177 0 38.7023)
(-141.479 -1.00543e-14 180.069)
(-349.596 0 300.822)
(-534 0 386.258)
(-637.625 0 379.089)
(-566.176 0 273.959)
(-389.025 0 160.152)
(-216.912 -1.10522e-14 73.146)
(-82.5453 4.19149e-18 17.5288)
(-9.75253 1.11914e-14 -6.51226)
(18.3141 -1.10585e-14 -12.1767)
(30.7405 0 -18.4541)
(59.7614 0 -43.3365)
(111.695 0 -77.0739)
(143.737 0 -85.0275)
(114.658 0 -52.9613)
(45.1754 -2.02275e-19 -6.47203)
(-18.8514 0 24.8078)
(-50.4137 1.74805e-14 35.4542)
(-54.1402 -6.33424e-18 32.4165)
(-45.5347 0 24.9976)
(-30.5988 3.17969e-14 14.9335)
(-15.0852 0 6.1732)
(-4.5106 -2.96155e-14 2.47892)
(-3.87606 3.89294e-18 3.51957)
(-11.6422 0 11.141)
(-25.8461 0 19.1392)
(-42.4742 0 28.5388)
(-55.498 0 35.3613)
(-64.8103 -4.60002e-14 39.6558)
(-67.7501 0 40.2045)
(-66.6438 0 38.5173)
(-61.8878 -3.99526e-14 35.1168)
(-55.5849 0 31.2571)
(-49.6004 3.61813e-14 27.799)
(-44.0044 -3.43128e-14 24.814)
(-40.2127 0 22.9537)
(-37.6214 -1.23151e-13 21.5951)
(-36.1971 -1.19277e-18 21.0998)
(-35.9194 -1.10264e-13 20.8308)
(-36.0686 5.20779e-14 21.0626)
(-36.4798 4.89967e-14 21.2492)
(-37.6512 -4.59223e-14 21.9294)
(-37.8603 -4.29935e-14 22.0314)
(-39.1696 -4.04666e-14 22.8787)
(-41.0197 7.50811e-14 23.6741)
(-39.5885 7.05866e-14 23.0932)
(-45.5065 6.54932e-14 26.4408)
(-42.4466 6.08703e-14 24.2393)
(-45.2042 0 26.729)
(-49.9179 0 29.2169)
(64.2808 0 129.802)
(84.5535 2.43354e-17 126.184)
(98.9481 0 117.984)
(106.782 0 102.335)
(107.751 0 86.237)
(101.362 0 72.6316)
(91.4355 -3.41334e-18 62.4533)
(79.372 1.46245e-17 53.6259)
(66.3364 -7.83764e-18 46.4106)
(52.3334 2.63573e-17 41.1918)
(41.1118 -1.8392e-17 39.5205)
(30.7682 0 35.9811)
(21.9969 -4.89813e-18 31.1577)
(12.9677 0 25.9889)
(6.56997 -2.66519e-17 22.0555)
(2.99176 -4.37614e-17 16.6554)
(0.325185 0 16.9824)
(-0.445761 0 18.0308)
(-2.74349 7.15453e-17 15.7697)
(-4.50224 0 16.7615)
(-3.67418 0 16.6632)
(-6.59252 -1.88257e-16 14.0784)
(-6.24226 0 15.2595)
(-5.06465 0 13.2809)
(-5.70576 -1.99573e-16 12.8157)
(-2.54678 0 12.6036)
(-1.90155 0 9.56206)
(0.0743977 0 9.93046)
(1.53111 6.15156e-16 7.38646)
(3.36117 0 7.14539)
(4.31406 -3.22116e-18 5.63406)
(7.45363 1.84173e-18 5.43979)
(5.71293 1.72901e-16 -0.88223)
(-0.0963011 -1.94152e-16 -2.99681)
(14.369 3.59934e-16 13.1629)
(26.9252 8.50793e-17 6.74969)
(16.6485 0 -11.4434)
(12.2379 0 -9.03953)
(14.3984 5.97669e-17 -5.85927)
(13.1839 -1.04413e-16 -7.79518)
(14.8539 0 -3.20245)
(33.4919 0 10.3718)
(21.5508 4.7589e-17 -14.6843)
(11.4674 5.56933e-17 -8.99309)
(12.3729 -3.10774e-17 -0.0215633)
(11.4719 -5.80056e-17 7.98259)
(10.5205 0 18.8135)
(-11.0584 2.57047e-17 25.5775)
(-31.2241 0 44.4999)
(-50.0538 0 58.892)
(-74.7992 -2.22658e-16 71.8715)
(-95.4865 3.21291e-16 76.1037)
(-104.673 0 67.167)
(-93.217 -4.56076e-16 42.836)
(-57.6689 1.09292e-18 3.15624)
(7.73097 0 -48.1928)
(90.8439 0 -105.213)
(169.325 2.86307e-15 -148.947)
(227.091 0 -150.931)
(240.158 0 -130.61)
(206.859 -3.18262e-15 -93.9418)
(140.07 0 -68.2362)
(153.491 0 -56.4512)
(86.6951 7.33478e-15 -10.3919)
(88.2212 -3.54623e-15 -68.8458)
(251.996 3.68611e-15 -222.093)
(459.835 0 -346.604)
(509.15 -4.08777e-15 -307.646)
(299.438 0 -96.5371)
(37.8217 4.5818e-15 98.5775)
(-182.095 4.71355e-15 224.575)
(-374.265 0 332.678)
(-547.968 0 409.091)
(-658.291 -1.00059e-14 393.065)
(-599.029 -1.01248e-14 280.556)
(-421.138 0 161.772)
(-239.776 0 71.5191)
(-95.1853 2.11834e-14 15.371)
(-14.6019 -1.04729e-14 -8.61955)
(19.5413 2.06907e-14 -14.8176)
(36.71 0 -25.2976)
(70.4161 0 -52.6859)
(123.077 0 -86.9005)
(151.864 0 -89.6946)
(116.923 0 -50.4565)
(42.8285 4.23451e-20 0.455264)
(-24.033 0 31.0457)
(-56.4529 0 39.9778)
(-59.965 -6.02359e-18 35.6287)
(-50.8138 0 27.1397)
(-35.4945 2.97273e-14 16.6533)
(-20.098 0 8.14682)
(-10.516 2.76777e-14 4.75993)
(-10.5107 7.08656e-18 7.58558)
(-19.4851 0 16.7919)
(-35.1221 0 25.2032)
(-52.5086 0 35.0975)
(-65.9322 0 41.9756)
(-75.5173 -4.78022e-19 46.0783)
(-78.2083 -4.09629e-14 46.1812)
(-76.8789 3.91382e-14 44.1262)
(-71.4582 3.73153e-14 40.2147)
(-64.7631 0 36.0846)
(-58.0685 -3.37891e-14 32.2686)
(-52.1995 3.20425e-14 29.19)
(-47.8788 0 27.1359)
(-45.2206 5.74958e-14 25.7758)
(-43.4658 -1.09462e-13 25.1881)
(-43.2255 5.14746e-14 24.9465)
(-43.2269 0 25.1555)
(-43.6132 -4.57403e-14 25.3238)
(-44.8572 0 26.0671)
(-44.8647 0 26.0512)
(-46.378 3.77746e-14 27.0492)
(-47.9739 0 27.6464)
(-46.6162 0 27.1841)
(-52.3753 -6.11306e-14 30.4306)
(-49.0475 -5.68139e-14 27.9809)
(-52.0437 -5.25964e-14 30.7881)
(-55.4838 4.91005e-14 32.4442)
(52.8166 0 111.269)
(68.9404 -2.28718e-17 108.875)
(80.6588 -4.41227e-17 103.479)
(87.9896 0 93.6794)
(90.8279 0 81.1093)
(88.3459 0 69.8943)
(81.6789 3.20762e-18 60.8205)
(72.7285 0 53.317)
(62.325 7.36376e-18 46.1423)
(51.5826 0 40.9166)
(41.6684 0 38.8817)
(31.7456 5.32399e-18 35.8082)
(24.1956 0 31.6705)
(15.0677 2.4101e-17 26.7862)
(5.9128 -3.20203e-17 22.678)
(0.662121 4.10976e-17 17.5972)
(-2.68777 0 17.5087)
(-5.20973 -6.04558e-17 19.1882)
(-7.90373 0 18.0013)
(-9.60149 -1.56208e-16 19.1342)
(-9.95243 0 19.7208)
(-13.0062 1.76809e-16 17.3012)
(-12.7122 -1.88789e-16 18.5766)
(-11.9392 0 17.3139)
(-12.5502 0 16.4493)
(-9.76848 1.8548e-16 16.8344)
(-9.27208 0 13.7459)
(-7.48323 0 13.2504)
(-5.51124 -1.79753e-18 11.6373)
(-3.91638 0 10.3026)
(-2.55012 -4.4639e-16 8.96229)
(-0.204991 -1.99038e-16 8.01548)
(-1.08057 1.67725e-16 2.9313)
(-3.10158 0 1.66124)
(7.02302 -3.03421e-16 10.5923)
(16.5675 0 5.63916)
(11.2125 0 -6.36474)
(8.18828 0 -6.64996)
(9.52457 5.36513e-18 -4.78296)
(9.37101 9.80055e-17 -5.56105)
(12.2418 7.64085e-17 -1.67754)
(24.7458 0 6.99913)
(16.295 1.20575e-16 -10.3145)
(9.23989 0 -5.04188)