/*--------------------------------*- C++ -*----------------------------------*\
| =========                 |                                                 |
| \\      /  F ield         | OpenFOAM: The Open Source CFD Toolbox           |
|  \\    /   O peration     | Version:  2412                                  |
|   \\  /    A nd           | Website:  www.openfoam.com                      |
|    \\/     M anipulation  |                                                 |
\*---------------------------------------------------------------------------*/
FoamFile
{
    version     2.0;
    format      ascii;
    arch        "LSB;label=32;scalar=64";
    class       volScalarField;
    location    "1.165";
    object      Co;
}
// * * * * * * * * * * * * * * * * * * * * * * * * * * * * * * * * * * * * * //

dimensions      [0 0 0 0 0 0 0];

internalField   nonuniform List<scalar> 
12600
(
0.378173
0.155549
0.0613836
0.0270805
0.014547
0.00898007
0.00582526
0.00378736
0.00239383
0.00141396
0.000716193
0.00036969
0.000430564
0.000622514
0.000748254
0.000833953
0.000880965
0.000903764
0.000905507
0.000892629
0.000868502
0.000835612
0.000800508
0.000764375
0.000724984
0.000683861
0.000641178
0.000598077
0.000555898
0.000515065
0.000475779
0.000438266
0.000402635
0.000369082
0.000337598
0.000308247
0.000281016
0.000255782
0.000232531
0.000211122
0.000191491
0.000173549
0.000157144
0.00014216
0.000128486
0.000116004
0.000104633
9.43233e-05
8.50503e-05
7.68211e-05
6.96302e-05
6.34778e-05
5.83393e-05
5.41396e-05
5.07587e-05
4.80053e-05
4.56157e-05
4.32197e-05
4.03472e-05
3.64225e-05
3.0801e-05
2.28917e-05
1.31135e-05
1.60028e-05
3.11855e-05
4.37858e-05
5.12953e-05
5.17905e-05
4.90732e-05
4.24814e-05
2.99824e-05
1.59848e-05
1.51484e-05
2.12813e-05
2.00948e-05
1.892e-05
1.21642e-05
8.8685e-06
1.26549e-05
1.81571e-05
2.25086e-05
2.5787e-05
2.78838e-05
2.79139e-05
2.62759e-05
2.19535e-05
1.5835e-05
2.98533e-05
6.90454e-05
0.00011348
0.000147265
0.000166886
0.000180413
0.000170733
0.000160123
0.000168268
0.000214305
0.000200759
0.000326336
0.000349365
0.000326916
0.000180623
9.9088e-05
2.53367e-05
6.81701e-06
4.54529e-05
8.34049e-05
7.7855e-05
7.7757e-05
8.96414e-05
8.35946e-05
7.10262e-05
4.64071e-05
4.86755e-05
4.53376e-05
5.70555e-05
4.25386e-05
3.95874e-05
2.7971e-05
4.077e-05
0.607326
0.39224
0.228315
0.130718
0.078461
0.050206
0.033697
0.0231828
0.0160554
0.01103
0.00740172
0.00473907
0.00277085
0.00131258
0.000965582
0.00142154
0.00180247
0.00206357
0.0022225
0.00230737
0.00233395
0.00231394
0.00226598
0.00219596
0.00211289
0.00203177
0.00193705
0.00183299
0.00172446
0.00161433
0.00150443
0.00139662
0.00129195
0.0011916
0.00109594
0.00100549
0.000920666
0.000841272
0.000767504
0.000699102
0.000635943
0.000577926
0.000524636
0.000475751
0.000430989
0.000389991
0.000352512
0.000318383
0.000287516
0.000259944
0.000235658
0.000214686
0.000196981
0.000182366
0.000170536
0.000160966
0.000152897
0.000145299
0.00013676
0.000125506
0.000109474
8.66046e-05
5.54372e-05
6.34804e-05
0.000112306
0.000151925
0.000173309
0.000170722
0.000162916
0.000150018
0.000115721
6.67875e-05
5.47566e-05
6.74746e-05
5.77011e-05
6.00277e-05
4.22127e-05
3.45038e-05
4.6146e-05
5.94871e-05
6.945e-05
7.63398e-05
7.96854e-05
7.64066e-05
7.325e-05
6.49042e-05
6.77711e-05
0.000139628
0.000280657
0.000430429
0.000525844
0.000568259
0.000590026
0.000534052
0.00051321
0.000530906
0.000700756
0.000667209
0.00128594
0.00123226
0.00113538
0.00065189
0.0003691
0.00010213
2.16276e-05
0.000184696
0.000288944
0.000242028
0.000257188
0.000280481
0.000253589
0.000219834
0.000189241
0.000227961
0.00020344
0.000226037
0.00012262
0.000125379
0.000105647
0.000147634
0.674424
0.543865
0.391217
0.264991
0.17674
0.119521
0.0828126
0.0585969
0.0419828
0.0301861
0.0215916
0.0152155
0.0104288
0.00679254
0.00409779
0.00207152
0.00166392
0.00233647
0.0027982
0.0031026
0.0032822
0.00336162
0.00337144
0.00332323
0.00323632
0.00313257
0.00303469
0.00291921
0.00278512
0.00263766
0.00248241
0.00232399
0.00216565
0.00201042
0.00185951
0.00171447
0.00157679
0.00144648
0.00132426
0.00121002
0.00110378
0.00100567
0.000915136
0.000831734
0.000755099
0.000684657
0.00061999
0.000560799
0.000506903
0.000458386
0.000415249
0.000377621
0.000345529
0.000318807
0.000297133
0.000279846
0.000265925
0.000253947
0.000241864
0.000226894
0.000205542
0.000173903
0.000128536
0.000142085
0.000221074
0.00028505
0.000313438
0.00029748
0.000282731
0.000279543
0.000235106
0.000157565
0.000121434
0.000119387
8.82444e-05
0.000105606
8.38313e-05
7.34674e-05
8.89468e-05
0.00010397
0.000114726
0.000121243
0.000122096
0.000111312
0.000113263
0.000113489
0.000155362
0.000323423
0.000595842
0.000862035
0.000989262
0.00101395
0.00101303
0.000878951
0.000883604
0.000902183
0.00123466
0.00120939
0.00275707
0.00238155
0.00213172
0.00129357
0.000765846
0.000232232
4.53284e-05
0.000403369
0.000545394
0.000396701
0.000450816
0.000460734
0.000439335
0.000425148
0.000420014
0.000491613
0.000416695
0.00049087
0.000229813
0.000210057
0.000207475
0.000282461
0.673624
0.612519
0.506657
0.391146
0.289508
0.210417
0.152741
0.111627
0.082198
0.0608036
0.0449804
0.0331014
0.0240818
0.0171631
0.0118869
0.00778782
0.00466174
0.00272159
0.00255668
0.00321987
0.00366876
0.00394337
0.00409204
0.00413579
0.00410195
0.00401005
0.00390222
0.00379297
0.00368269
0.00354121
0.00337413
0.0031916
0.00300045
0.0028067
0.00261312
0.002423
0.00223961
0.00206356
0.00189656
0.00173894
0.00159107
0.00145366
0.00132616
0.00120813
0.00109924
0.000998751
0.000906082
0.000820806
0.000742636
0.000671733
0.000608138
0.000552146
0.00050396
0.000463536
0.000430695
0.000404812
0.000384861
0.00036927
0.000355598
0.000340233
0.000318223
0.00028347
0.000229685
0.00024834
0.000354297
0.000440846
0.000470954
0.000433364
0.000405301
0.000427172
0.000384332
0.000283703
0.000211151
0.000176096
0.000113201
0.000153709
0.000134756
0.000121991
0.000136024
0.000146941
0.000154188
0.00015706
0.000152498
0.000131143
0.000146762
0.000167204
0.000278126
0.00058048
0.00100978
0.00139676
0.00151977
0.00148281
0.00142939
0.00121094
0.00127469
0.0012656
0.00177434
0.00176647
0.00459391
0.00377169
0.00324089
0.00209594
0.00128616
0.000426504
8.68872e-05
0.000692459
0.000837966
0.000534216
0.000651506
0.000609723
0.000655296
0.000763127
0.000795262
0.000812973
0.000665746
0.000844409
0.000388029
0.000277134
0.000328263
0.000438916
0.649308
0.624434
0.564463
0.480605
0.390027
0.306153
0.235718
0.179896
0.136914
0.104142
0.0791368
0.0599538
0.0451452
0.0336363
0.0246951
0.0176895
0.0122334
0.00796305
0.00465214
0.0031185
0.00337463
0.00396178
0.00434775
0.00456527
0.00465483
0.00464511
0.00456186
0.00445212
0.00433725
0.0042519
0.00412031
0.00395068
0.00375609
0.00354718
0.00332935
0.00310844
0.00289041
0.00267712
0.00247169
0.00227536
0.0020892
0.00191479
0.00175185
0.00160012
0.00145944
0.00132898
0.00120808
0.00109619
0.000992937
0.000898577
0.000813235
0.00073744
0.000671669
0.000616119
0.000570913
0.000535641
0.000509446
0.000490895
0.00047738
0.00046463
0.000446222
0.00041358
0.000356879
0.000379303
0.000508416
0.000616284
0.000644183
0.000578628
0.000526159
0.000588016
0.000559131
0.000442127
0.000321634
0.000236602
0.000134116
0.000201663
0.00019245
0.000176375
0.000182568
0.000183962
0.000183971
0.000180676
0.000168544
0.00013453
0.000174138
0.000247017
0.000456568
0.000910072
0.00151756
0.00202112
0.00209612
0.00195054
0.0018194
0.00153005
0.00168429
0.00160271
0.00226943
0.00226521
0.00663208
0.0053814
0.00436726
0.00304098
0.00193252
0.000683477
0.00014123
0.00104073
0.00115643
0.000650194
0.000851922
0.000708618
0.000915422
0.00118767
0.0012518
0.00115819
0.000936164
0.00129146
0.000622394
0.000319921
0.000461202
0.000611114
0.621648
0.608719
0.577946
0.526223
0.459447
0.386938
0.316988
0.254667
0.201969
0.158838
0.124187
0.0966021
0.0747194
0.0573616
0.043614
0.0326969
0.0240519
0.0171989
0.0117912
0.00754236
0.00424821
0.00330119
0.00404337
0.00453407
0.00482983
0.00497199
0.0049963
0.00493159
0.00481585
0.00470836
0.00465327
0.00454606
0.00438782
0.00419535
0.00397835
0.00374643
0.00350933
0.0032709
0.00303639
0.00280847
0.00258931
0.00238182
0.00218628
0.00200281
0.00183166
0.00167204
0.00152326
0.00138473
0.001256
0.00113748
0.00102942
0.000932649
0.000848023
0.000776094
0.000717435
0.00067204
0.000639404
0.00061846
0.000606637
0.000599162
0.00058815
0.000562358
0.000507882
0.000531888
0.000679812
0.000808385
0.00083161
0.000733781
0.000640907
0.000756944
0.000754787
0.000629443
0.000450663
0.000300633
0.000153117
0.000246791
0.000254289
0.000232989
0.000224136
0.000211439
0.000201377
0.000190234
0.000169059
0.000126947
0.000196216
0.000354233
0.000692973
0.00131108
0.00211219
0.00271756
0.0026932
0.00239341
0.00216799
0.00183514
0.00211156
0.0018978
0.00267372
0.00264349
0.00869544
0.00717528
0.00539285
0.00409612
0.00270683
0.00100442
0.000202679
0.00143409
0.0014931
0.000768388
0.00104387
0.00075545
0.00122806
0.00168418
0.00175726
0.00149382
0.00121706
0.0017724
0.000891725
0.000338586
0.00059827
0.000793879
0.597495
0.585413
0.567476
0.537501
0.494091
0.440372
0.381694
0.323137
0.268397
0.219602
0.177573
0.142231
0.112987
0.0890316
0.0695534
0.0537717
0.0410412
0.0307948
0.0225817
0.0160262
0.0108169
0.00671974
0.0042423
0.00393911
0.00454168
0.00491968
0.00512177
0.00518786
0.00514836
0.00503186
0.00495151
0.00490928
0.00483777
0.0047046
0.0045222
0.00430601
0.00407109
0.00382431
0.00357386
0.00332455
0.00308021
0.00284558
0.00262194
0.00241004
0.00221083
0.00202373
0.00184817
0.00168358
0.0015295
0.00138657
0.0012552
0.00113661
0.00103212
0.000942762
0.000869708
0.000813529
0.000774259
0.000751397
0.000742597
0.000742726
0.000742455
0.000727748
0.000680261
0.000702827
0.000864634
0.00101385
0.00103131
0.000898889
0.000744672
0.000928296
0.000966076
0.000841902
0.000595903
0.000368298
0.000172823
0.000286009
0.000317447
0.000288395
0.000256891
0.000226607
0.00020467
0.000184861
0.000153676
0.000116232
0.000214276
0.000480165
0.000979308
0.00178195
0.0027846
0.00346461
0.00328282
0.00278912
0.00246512
0.00212417
0.00255329
0.00213647
0.00294971
0.00287603
0.0106171
0.00909244
0.00619489
0.00521553
0.00360858
0.00139081
0.00026232
0.00185655
0.0018447
0.000908394
0.00121834
0.000864701
0.00159922
0.00223254
0.00227449
0.00178878
0.00150112
0.00225852
0.00118163
0.000338106
0.000730596
0.000982654
0.577252
0.563383
0.548808
0.529459
0.501993
0.465645
0.422134
0.374346
0.325315
0.277638
0.23322
0.193231
0.158191
0.128119
0.102723
0.0815219
0.0639875
0.049584
0.037827
0.0282861
0.0205854
0.0144205
0.0095129
0.00564436
0.00404093
0.00439909
0.00486512
0.00513312
0.0052456
0.00523981
0.00514501
0.00507293
0.00503873
0.00501562
0.00491387
0.00474911
0.00454475
0.00431218
0.00406363
0.00380696
0.00354835
0.00329503
0.00304977
0.0028144
0.00259084
0.00237903
0.00217865
0.00198934
0.00181067
0.00164359
0.00148876
0.00134786
0.00122281
0.00111522
0.001027
0.000959474
0.000913392
0.000888992
0.000884329
0.000894042
0.000907397
0.000907508
0.000871377
0.000888652
0.00105881
0.00122909
0.00124103
0.00107362
0.000832302
0.00109588
0.00118715
0.00107522
0.000772159
0.000456059
0.000196352
0.000316046
0.000378965
0.000339447
0.00027783
0.000227796
0.000193335
0.000164769
0.000122861
0.000103264
0.000245034
0.000639855
0.00131566
0.00232
0.00352268
0.00423672
0.00383538
0.0031203
0.00270866
0.00239535
0.00300695
0.00230811
0.00307622
0.00298735
0.0122692
0.0110522
0.00667395
0.00634313
0.00463207
0.00184362
0.000307592
0.00229054
0.00221119
0.00105928
0.00136569
0.00107548
0.00202918
0.00280662
0.00276792
0.0020209
0.00178197
0.00272965
0.00148142
0.000324669
0.00085016
0.00117326
0.559644
0.544462
0.529862
0.514177
0.494884
0.470188
0.439709
0.404195
0.365078
0.324082
0.282929
0.243132
0.205881
0.171975
0.141852
0.115615
0.0931373
0.0741323
0.0582384
0.0450694
0.034245
0.0254244
0.0182878
0.012564
0.00801473
0.00488718
0.00412924
0.00468931
0.00502779
0.00519423
0.00522804
0.00516208
0.00509171
0.0050617
0.00509138
0.00502712
0.00489131
0.00470311
0.00448033
0.00423519
0.00397711
0.00371665
0.0034588
0.00320691
0.00296435
0.0027319
0.00250975
0.00229791
0.00209615
0.0019058
0.0017279
0.00156465
0.00141867
0.00129231
0.00118836
0.00110904
0.00105599
0.00103035
0.00103073
0.00105165
0.00108105
0.00109921
0.00107841
0.0010857
0.00125802
0.00145021
0.00145807
0.00125729
0.000906471
0.0012531
0.0014115
0.00132446
0.000993413
0.000579256
0.000227082
0.000333411
0.000435757
0.000383383
0.000284984
0.000214534
0.000168045
0.000131162
7.75831e-05
8.81127e-05
0.000315159
0.000859112
0.00170197
0.00292091
0.00431086
0.00500496
0.00432243
0.00337709
0.00290475
0.00264606
0.00346888
0.00240517
0.00304917
0.00303746
0.01359
0.0129715
0.00677921
0.00741988
0.00576549
0.00237662
0.000336527
0.0027188
0.00259662
0.00121511
0.00147592
0.00133182
0.00263604
0.00349593
0.00320536
0.00217989
0.00205285
0.00317095
0.00178384
0.000303852
0.000950934
0.0013612
0.54378
0.528066
0.512975
0.498079
0.482014
0.463403
0.441378
0.415631
0.386358
0.354165
0.319942
0.284729
0.249603
0.21557
0.183494
0.15402
0.127552
0.104256
0.0841029
0.0669237
0.05246
0.0404203
0.0304957
0.0223937
0.0158418
0.0105963
0.00644211
0.0043888
0.00440925
0.00482591
0.00505158
0.0051311
0.00510121
0.00502307
0.00499816
0.00507695
0.00506097
0.00495727
0.00479199
0.00458354
0.00434579
0.00409376
0.00383552
0.00357661
0.00332241
0.00307502
0.00283548
0.00260441
0.00238193
0.00216995
0.00196995
0.00178481
0.00161797
0.00147263
0.0013526
0.00126117
0.00120104
0.00117438
0.00118049
0.00121391
0.00126132
0.00130024
0.00129835
0.0012901
0.00145768
0.00167293
0.00167925
0.00144831
0.00101311
0.00139304
0.00163186
0.00158391
0.00123627
0.000718644
0.000268425
0.000334485
0.000484644
0.000417838
0.000277543
0.000187579
0.000130549
8.59776e-05
2.94509e-05
0.000107535
0.000430065
0.00111117
0.00213771
0.00357808
0.00512997
0.00573823
0.00472009
0.00355973
0.00306721
0.00287387
0.00393422
0.00242201
0.00287913
0.00309312
0.0145649
0.014758
0.00649627
0.00838991
0.00699105
0.00299844
0.000343799
0.00312625
0.0030067
0.00137433
0.0015388
0.00163689
0.00331197
0.00418226
0.00356289
0.00226945
0.00230695
0.00357346
0.00208371
0.000279047
0.00102951
0.00154075
0.529297
0.513456
0.498128
0.483304
0.46829
0.452298
0.434707
0.415051
0.393042
0.368617
0.341941
0.313383
0.28348
0.252894
0.222368
0.192658
0.164465
0.138359
0.114732
0.0937885
0.0755612
0.0599522
0.0467709
0.0357791
0.0267177
0.0193302
0.0133731
0.00862413
0.00511421
0.00404115
0.00454127
0.00483285
0.0049658
0.00497105
0.00488693
0.00490755
0.00499046
0.00502263
0.00495759
0.00481934
0.00462825
0.00440541
0.00416311
0.00390994
0.00365407
0.0033995
0.00314858
0.00290291
0.00266319
0.00243211
0.00221175
0.00200577
0.00181861
0.00165445
0.00151827
0.00141461
0.00134732
0.0013198
0.00133213
0.00137899
0.00144592
0.00150786
0.0015281
0.00149778
0.00165292
0.00189256
0.00190077
0.0016447
0.00115906
0.00150817
0.00184023
0.00184688
0.0014969
0.000874148
0.000323573
0.000315603
0.000522385
0.000466388
0.00027916
0.000148636
8.28756e-05
4.36908e-05
4.90831e-05
0.000192383
0.000582889
0.00139656
0.00262133
0.00428218
0.00595724
0.00640551
0.00501277
0.00367936
0.00321458
0.0030765
0.00439552
0.00235287
0.00258498
0.00321057
0.0151696
0.0162853
0.00579497
0.0092003
0.00828566
0.00369672
0.000309182
0.00350178
0.00344674
0.00153485
0.00154445
0.00199156
0.0040224
0.00481505
0.00382661
0.00230472
0.00253865
0.0039321
0.00237516
0.000251355
0.00108434
0.0017042
0.516022
0.500201
0.484842
0.470056
0.455421
0.440493
0.424945
0.408486
0.390831
0.371743
0.35107
0.328764
0.304887
0.279625
0.253302
0.226375
0.19941
0.173032
0.147852
0.124399
0.103061
0.0840682
0.0674901
0.0532694
0.0412573
0.0312511
0.0230226
0.0163389
0.0109774
0.00672997
0.00441172
0.0041855
0.00455281
0.00473744
0.00478893
0.00474323
0.00475814
0.00483479
0.00492217
0.00489983
0.00479075
0.00462481
0.00442025
0.00418989
0.00394568
0.00369436
0.00344019
0.00318625
0.00293414
0.00268759
0.0024495
0.00222447
0.00201811
0.00183573
0.00168366
0.00156782
0.00149341
0.00146512
0.00148397
0.00154489
0.00163245
0.00171922
0.00176444
0.00171264
0.0018463
0.00210404
0.0021183
0.00184339
0.00131407
0.00159103
0.0020279
0.00210563
0.00177055
0.00107965
0.000426733
0.000273226
0.000545746
0.000513292
0.000317014
0.000173652
0.000104982
6.78326e-05
0.000125757
0.000300994
0.000758975
0.00171601
0.00314981
0.00502082
0.0067672
0.00697899
0.00519627
0.00375667
0.00336563
0.00325243
0.00484263
0.002191
0.00218835
0.00343199
0.0153463
0.0174163
0.00460869
0.00979617
0.00962137
0.00446887
0.000228559
0.0038386
0.00391752
0.00169326
0.00148376
0.0023943
0.0047445
0.00536154
0.00399352
0.00230786
0.00274525
0.00424663
0.00265102
0.000219445
0.00111423
0.00184174
0.503815
0.488066
0.472771
0.458077
0.443676
0.429269
0.414688
0.399799
0.384442
0.368442
0.351633
0.333859
0.314987
0.294917
0.273619
0.251164
0.227757
0.203742
0.179589
0.155844
0.13307
0.111772
0.0923388
0.0750123
0.0598835
0.0469183
0.0359913
0.0269206
0.0194965
0.0135013
0.0087248
0.00503866
0.00377179
0.00421224
0.00446097
0.00456647
0.00455531
0.00455936
0.00462008
0.00476703
0.00478851
0.00471685
0.00457932
0.00439461
0.00417991
0.0039458
0.0036993
0.00344563
0.00318772
0.00293074
0.00267867
0.00243727
0.00221352
0.00201407
0.00184674
0.00171904
0.00163763
0.00160865
0.00163416
0.00170945
0.00181836
0.00193135
0.00200413
0.00197528
0.00207496
0.00230196
0.00232693
0.00204047
0.00147577
0.00163408
0.00218562
0.00235133
0.00205121
0.00132496
0.000570003
0.000204111
0.000551545
0.000551328
0.000352981
0.000205018
0.000132982
9.81157e-05
0.000211474
0.000426569
0.000959962
0.0020698
0.00371817
0.00577864
0.00753319
0.00743728
0.00527933
0.00381804
0.00353444
0.00340137
0.00526421
0.00193038
0.00171024
0.00376863
0.0150802
0.0181143
0.00408057
0.0101167
0.010965
0.00531064
0.000299003
0.00413279
0.00441237
0.00184505
0.0013499
0.0028404
0.00545353
0.00579708
0.00406967
0.00230182
0.0029261
0.00452088
0.00290393
0.000180097
0.00111648
0.00194206
0.492557
0.476907
0.461713
0.447137
0.432937
0.418876
0.40485
0.3908
0.376649
0.362307
0.347678
0.33266
0.317128
0.300932
0.28391
0.265915
0.246858
0.226747
0.205719
0.184053
0.16216
0.140544
0.11974
0.100241
0.0824362
0.0665714
0.0527471
0.040939
0.0310322
0.0228541
0.0162043
0.0108783
0.00666929
0.00422161
0.00382321
0.00414615
0.00430056
0.00433538
0.00431732
0.00439144
0.00456131
0.00463426
0.00460364
0.00449545
0.00433425
0.00413612
0.00391195
0.00366999
0.00341518
0.00315463
0.00289378
0.00263981
0.00240137
0.00218664
0.00200517
0.00186622
0.0017781
0.00174849
0.00178064
0.00187035
0.002001
0.00214128
0.00224389
0.00224216
0.0022962
0.00248069
0.00252131
0.00223129
0.00164085
0.00163037
0.00230389
0.00257403
0.00233134
0.00159053
0.000737835
0.000158005
0.000536997
0.000578154
0.000384261
0.000234639
0.000158874
0.000148005
0.000306096
0.000570504
0.00118764
0.00245725
0.0043191
0.00653714
0.00822917
0.00776831
0.00528277
0.00388997
0.00372699
0.00352472
0.00564988
0.00204283
0.00147285
0.00417264
0.014502
0.0185106
0.0051275
0.0101001
0.0122782
0.00621605
0.000600876
0.00437987
0.0049158
0.00198483
0.001292
0.0033229
0.00612461
0.0061078
0.00406749
0.00230523
0.00307986
0.00476144
0.00316564
0.00019222
0.00111214
0.00199358
0.482153
0.466614
0.451535
0.437082
0.42306
0.409271
0.395636
0.382121
0.368686
0.355281
0.34186
0.328381
0.314789
0.300998
0.286878
0.272259
0.256955
0.240791
0.223643
0.205485
0.186412
0.166663
0.146619
0.12676
0.107608
0.0896498
0.073272
0.0587201
0.0460939
0.0353679
0.0264266
0.0191024
0.0131949
0.00850468
0.00483893
0.00345749
0.00378692
0.00400406
0.0040885
0.00407135
0.00416701
0.00431463
0.00444254
0.00445364
0.00437869
0.00424197
0.00405991
0.00384514
0.00360543
0.00335059
0.00308805
0.0028268
0.00257748
0.00235011
0.00215621
0.00200702
0.00191267
0.00188254
0.00192118
0.00202515
0.00217761
0.00234595
0.00248048
0.00250985
0.00250547
0.00263454
0.00269585
0.00241061
0.00180485
0.00157381
0.00237334
0.00276289
0.00260169
0.00187101
0.000928666
0.000210279
0.000499873
0.000591559
0.000409454
0.000261422
0.000181303
0.00021008
0.000410202
0.000734529
0.00144341
0.00287614
0.00494253
0.00727545
0.00883254
0.0079713
0.00523596
0.00399341
0.00394061
0.00362531
0.00599301
0.00259193
0.00175469
0.00455057
0.0138515
0.0187657
0.00686522
0.00967844
0.013517
0.007177
0.00100187
0.00457276
0.00540555
0.0021071
0.0014524
0.00383251
0.00673432
0.00629309
0.00400393
0.00232834
0.00320124
0.00497501
0.00341231
0.000213353
0.00109812
0.00200648
0.472518
0.457094
0.442135
0.427802
0.413939
0.400374
0.387042
0.373919
0.360979
0.348183
0.3355
0.322916
0.310418
0.297983
0.285558
0.273046
0.260303
0.247146
0.233372
0.218793
0.203266
0.186738
0.169284
0.151122
0.132617
0.114237
0.0965013
0.0798931
0.0647957
0.0514477
0.0399383
0.0302343
0.0222111
0.0156963
0.0104973
0.00640944
0.0039147
0.00339393
0.00368015
0.00381485
0.00384302
0.00391229
0.00403069
0.00421459
0.00427184
0.00423161
0.00411876
0.00395226
0.00374399
0.00350748
0.00325294
0.00299164
0.00273676
0.0025005
0.00229664
0.00213874
0.00203891
0.00200842
0.00205335
0.00217119
0.00234531
0.00254223
0.00271057
0.00277496
0.00269821
0.00275799
0.002845
0.00257284
0.0019627
0.00145986
0.00238538
0.0029066
0.00285136
0.00215904
0.00115222
0.000343974
0.000438437
0.000589637
0.000427288
0.000284337
0.000198844
0.000271808
0.00052486
0.000920297
0.00172774
0.00332228
0.0055754
0.00797206
0.00932624
0.00805705
0.00517148
0.00413966
0.00416608
0.00370616
0.00628804
0.00321092
0.00232671
0.00483813
0.0133006
0.018852
0.008476
0.00877262
0.0146316
0.00818337
0.00146396
0.00470222
0.00585694
0.00220655
0.00173864
0.00442454
0.00732276
0.00636737
0.00389847
0.00237125
0.00328043
0.00516613
0.00363811
0.000231945
0.00110295
0.00200951
0.463579
0.448269
0.43343
0.419213
0.405491
0.392116
0.379028
0.366212
0.353645
0.341295
0.329131
0.317139
0.305319
0.293673
0.282196
0.27086
0.259603
0.248316
0.236845
0.224997
0.212566
0.19935
0.185195
0.170037
0.153938
0.137108
0.119904
0.102795
0.0862999
0.0709018
0.0569767
0.0447506
0.0342946
0.0255572
0.0184067
0.0126588
0.00812084
0.00459919
0.00314496
0.00332452
0.00352086
0.00359488
0.00362916
0.00374286
0.00395558
0.00406056
0.00405482
0.00396571
0.00381131
0.00361048
0.00337723
0.00312588
0.0028728
0.00263288
0.00242261
0.00225818
0.00215402
0.0021235
0.00217446
0.00230562
0.00250103
0.00272687
0.00293074
0.00303394
0.00295591
0.00292703
0.00296352
0.00271247
0.00210889
0.00133843
0.00233304
0.00299399
0.00306796
0.00244487
0.0014235
0.000524076
0.000351705
0.000570948
0.000436669
0.000302421
0.00021018
0.000333652
0.0006513
0.00112888
0.00203965
0.0037893
0.00620244
0.0086066
0.0097003
0.00804626
0.0051191
0.00432905
0.00439086
0.00376914
0.00652955
0.00386413
0.0029907
0.00505852
0.0128504
0.018564
0.00975041
0.00730833
0.0155646
0.00922189
0.00197869
0.0047592
0.00624737
0.00227812
0.00206041
0.00509617
0.0078796
0.00635727
0.0037706
0.00242454
0.0033057
0.00533554
0.00384874
0.00025162
0.00107498
0.00206625
0.455272
0.440074
0.425351
0.411244
0.397649
0.384436
0.371553
0.358983
0.346711
0.334706
0.322939
0.31139
0.300054
0.288935
0.278039
0.267373
0.256926
0.246663
0.23651
0.226348
0.216021
0.205333
0.194068
0.182021
0.169032
0.155033
0.140081
0.124385
0.108302
0.092307
0.0769216
0.0626297
0.0497966
0.0386265
0.0291695
0.0213498
0.0150201
0.00999515
0.0060732
0.00356594
0.00294302
0.00320408
0.00332602
0.00335027
0.00348842
0.00366706
0.00381932
0.00384909
0.00378007
0.0036391
0.00344568
0.00321819
0.00297721
0.00274098
0.00252929
0.00236149
0.0022547
0.00222471
0.00228145
0.00242527
0.00264143
0.00289632
0.00313729
0.003283
0.00324855
0.00311232
0.00304675
0.00282433
0.00223767
0.00135415
0.00221201
0.00301493
0.0032381
0.00271636
0.00170947
0.000721691
0.000239852
0.000534283
0.000436718
0.000314828
0.000219572
0.000396513
0.000790471
0.00136026
0.00237633
0.00426872
0.00680691
0.00916113
0.00995277
0.00796613
0.00510085
0.00455215
0.00460159
0.00381447
0.00670761
0.00449314
0.00373356
0.0052922
0.0124167
0.0177693
0.0106992
0.00528274
0.0162553
0.0102754
0.00253985
0.00473727
0.0065593
0.00231678
0.00240956
0.00575925
0.00832612
0.0062965
0.00363857
0.00247324
0.0032689
0.00548022
0.00405047
0.0002767
0.00100862
0.00212288
0.447542
0.432451
0.41784
0.403837
0.390357
0.377286
0.364574
0.352208
0.340174
0.328445
0.316993
0.305794
0.294838
0.28412
0.273644
0.26342
0.253456
0.243753
0.234294
0.225033
0.21589
0.206744
0.197435
0.187762
0.177507
0.166463
0.154472
0.141464
0.127497
0.112782
0.0976822
0.0826815
0.0683086
0.0550444
0.0432401
0.0330732
0.0245624
0.017612
0.0120534
0.00769599
0.00434357
0.00282778
0.00286091
0.00304157
0.00310879
0.00321242
0.00334608
0.00354928
0.00361093
0.00356423
0.00343679
0.00325281
0.00303847
0.00281637
0.00261039
0.00244379
0.00233689
0.0023084
0.00237077
0.0025265
0.0027627
0.00304661
0.00332608
0.00351781
0.00353338
0.00327882
0.00309595
0.002904
0.00234409
0.00147237
0.00202028
0.00296128
0.00334829
0.00295915
0.00199929
0.000931008
0.000228345
0.00048039
0.000426947
0.000320821
0.000231637
0.000461334
0.000942566
0.00161299
0.00273287
0.00475015
0.00737162
0.00962148
0.0100897
0.00784588
0.00512813
0.00479291
0.00478542
0.00384234
0.00681442
0.00503264
0.00448977
0.00559686
0.0119708
0.0166522
0.0115559
0.0043034
0.0166363
0.0113218
0.00314329
0.00463435
0.00678
0.00231565
0.00277712
0.00639799
0.00865559
0.00621607
0.00351834
0.00250327
0.00317089
0.00559533
0.0042483
0.000309709
0.000897903
0.0021353
0.440342
0.425351
0.410846
0.396942
0.383565
0.370619
0.358055
0.345861
0.334024
0.322519
0.311321
0.300405
0.289756
0.279364
0.269226
0.259344
0.249727
0.240383
0.231318
0.222527
0.213984
0.205639
0.197408
0.18917
0.180756
0.171968
0.162588
0.152412
0.141282
0.129132
0.116023
0.102171
0.0879495
0.073853
0.0604181
0.0481217
0.0372935
0.0280817
0.0204689
0.0143329
0.00949404
0.00575081
0.00322649
0.00249462
0.00273703
0.00285291
0.00291472
0.00306341
0.00324623
0.00334229
0.00331894
0.00320684
0.0030401
0.00284717
0.00265724
0.00249855
0.00239538
0.00237001
0.00243815
0.00260503
0.00286041
0.00317311
0.00349229
0.0037334
0.00380506
0.00360393
0.00327868
0.00294786
0.00242306
0.00157382
0.00175939
0.00282802
0.00338606
0.00315734
0.00227932
0.00114555
0.000329196
0.000409293
0.000407151
0.00032001
0.00024193
0.000528547
0.00110666
0.00188392
0.00310241
0.00522129
0.00788008
0.00997836
0.0101239
0.00771224
0.00520151
0.00503257
0.00493204
0.00385535
0.00685611
0.00545404
0.00517355
0.00596305
0.0116597
0.0158098
0.0125762
0.0055052
0.0166254
0.0123336
0.00378336
0.00445085
0.00690082
0.00226775
0.00315327
0.00700001
0.00887521
0.00614336
0.00342313
0.00250743
0.00302398
0.00567703
0.00444693
0.000373245
0.000739292
0.00209954
0.433627
0.41873
0.404326
0.390514
0.377233
0.364397
0.351962
0.339915
0.328242
0.316923
0.305933
0.295249
0.284852
0.274729
0.264872
0.255277
0.245945
0.23688
0.228093
0.219587
0.211366
0.203416
0.195709
0.188192
0.180779
0.173342
0.165714
0.157698
0.14908
0.139659
0.129283
0.117886
0.105536
0.0924566
0.0790331
0.065772
0.0532168
0.041839
0.0319426
0.0236377
0.0168734
0.0114979
0.00731909
0.00413308
0.002536
0.00241062
0.00258642
0.00265811
0.0027962
0.00291058
0.00304402
0.00304555
0.00295741
0.00281596
0.0026574
0.00251662
0.0024231
0.00240368
0.00247823
0.00265562
0.00292926
0.00327033
0.00363019
0.00392384
0.00405762
0.00391989
0.00344619
0.00296291
0.00247036
0.0016529
0.00143387
0.00261435
0.00334138
0.00329442
0.00253374
0.00135587
0.000436857
0.000322923
0.000377583
0.000312227
0.000246595
0.000597908
0.00128051
0.0021682
0.00347638
0.00566893
0.00831814
0.010228
0.0100734
0.00758615
0.00531281
0.00525398
0.00503699
0.0038574
0.0068531
0.00578074
0.00573981
0.00634577
0.0114371
0.0156158
0.0136869
0.00730838
0.0161113
0.0132734
0.0044522
0.00418998
0.00691496
0.00216469
0.00353129
0.00755357
0.00899524
0.00609275
0.00336343
0.00248783
0.00284942
0.00572395
0.00465247
0.000467162
0.000696923
0.00201226
0.427359
0.41255
0.398241
0.384515
0.371321
0.358585
0.346264
0.334343
0.322812
0.311649
0.300831
0.290338
0.280149
0.27025
0.260629
0.251277
0.242189
0.233365
0.224809
0.216525
0.20852
0.200797
0.193352
0.186169
0.179219
0.172445
0.165756
0.159025
0.152087
0.144747
0.136798
0.128042
0.118332
0.107608
0.0959419
0.0835664
0.0708784
0.0583983
0.0466768
0.0361745
0.0271675
0.0197231
0.0137527
0.00908005
0.00549945
0.00292412
0.00206448
0.00230068
0.0024267
0.00250764
0.00263518
0.00271654
0.00275189
0.00269542
0.0025918
0.00248438
0.00241001
0.00240142
0.0024841
0.00267178
0.00296275
0.0033316
0.00373287
0.00408202
0.00428392
0.00421903
0.00381175
0.00315044
0.00248251
0.00170467
0.00105071
0.00232266
0.00320777
0.00335464
0.0027446
0.0015724
0.000561536
0.000224545
0.000339064
0.000297727
0.000246144
0.000668303
0.00146054
0.00245947
0.00384509
0.00608004
0.00867489
0.010372
0.00995838
0.00748094
0.00544863
0.00544491
0.00510347
0.00384788
0.00682029
0.00604452
0.00619565
0.00672011
0.0112318
0.0159574
0.0143843
0.00840528
0.0150021
0.014093
0.00513862
0.00385844
0.00681862
0.00199857
0.00389865
0.00804849
0.00903785
0.0060675
0.00334672
0.0024545
0.00267104
0.00573618
0.00487234
0.000576418
0.000945927
0.00187169
0.421503
0.406777
0.392556
0.378911
0.365798
0.353151
0.340931
0.329122
0.317712
0.306682
0.29601
0.285676
0.275661
0.265948
0.256525
0.247379
0.238502
0.229889
0.221537
0.213449
0.205626
0.198075
0.190796
0.183792
0.177053
0.170566
0.164296
0.158183
0.152134
0.146024
0.139692
0.132949
0.125593
0.117432
0.108321
0.0982072
0.0871671
0.0754424
0.0634422
0.0516992
0.040771
0.0311052
0.022944
0.0163109
0.011077
0.00704699
0.00400566
0.00229479
0.001998
0.00218506
0.00228145
0.00237067
0.00243986
0.00244382
0.00243042
0.00238089
0.00234108
0.00235199
0.00244654
0.00264521
0.00295286
0.00334878
0.00379192
0.00419929
0.00447531
0.00449293
0.00416583
0.00341756
0.00255661
0.00172466
0.000809886
0.00196102
0.00298395
0.00332475
0.00289307
0.00178784
0.000703199
0.000192422
0.000294499
0.000277443