/*--------------------------------*- C++ -*----------------------------------*\
| =========                 |                                                 |
| \\      /  F ield         | OpenFOAM: The Open Source CFD Toolbox           |
|  \\    /   O peration     | Version:  2412                                  |
|   \\  /    A nd           | Website:  www.openfoam.com                      |
|    \\/     M anipulation  |                                                 |
\*---------------------------------------------------------------------------*/
FoamFile
{
    version     2.0;
    format      ascii;
    arch        "LSB;label=32;scalar=64";
    class       volVectorField;
    location    "1.67";
    object      U;
}
// * * * * * * * * * * * * * * * * * * * * * * * * * * * * * * * * * * * * * //

dimensions      [0 1 -1 0 0 0 0];

internalField   nonuniform List<vector> 
12600
(
(18.7292 1.18386e-21 2.09182)
(11.6109 1.60112e-20 0.450311)
(7.34713 1.88412e-20 -0.477598)
(5.08738 0 -0.708837)
(3.97498 1.70294e-20 -0.681958)
(3.3345 1.58563e-20 -0.607296)
(2.89338 0 -0.539643)
(2.5622 0 -0.484212)
(2.30259 -4.7622e-20 -0.438759)
(2.09244 0 -0.401017)
(1.91803 1.99615e-20 -0.369142)
(1.77046 1.82713e-20 -0.341806)
(1.6436 -1.67321e-20 -0.318062)
(1.53312 0 -0.297214)
(1.43584 -1.40122e-20 -0.278737)
(1.34937 0 -0.262228)
(1.27189 4.70405e-20 -0.247373)
(1.20197 0 -0.233922)
(1.13847 -1.96665e-20 -0.221672)
(1.08049 -1.79758e-20 -0.210462)
(1.02728 1.63987e-20 -0.200155)
(0.978246 5.42101e-24 -0.190641)
(0.932866 0 -0.181825)
(0.890721 -2.46811e-20 -0.173629)
(0.851449 0 -0.165984)
(0.814743 0 -0.158834)
(0.780341 -1.82401e-20 -0.152129)
(0.748014 0 -0.145826)
(0.717565 4.07113e-24 -0.139886)
(0.688821 1.31218e-20 -0.134277)
(0.661631 1.16596e-20 -0.12897)
(0.635859 1.03056e-20 -0.123939)
(0.611387 -9.05203e-21 -0.119162)
(0.58811 -1.57839e-20 -0.114617)
(0.565933 -1.36378e-20 -0.110287)
(0.544771 1.1643e-20 -0.106156)
(0.524547 0 -0.102207)
(0.505192 -8.12847e-21 -0.0984293)
(0.486645 0 -0.094809)
(0.468847 5.12867e-21 -0.0913355)
(0.451746 0 -0.0879985)
(0.435295 1.75485e-23 -0.0847891)
(0.41945 0 -0.0816983)
(0.404171 1.59731e-23 -0.0787186)
(0.389419 -1.01461e-21 -0.0758424)
(0.375162 2.71849e-21 -0.0730635)
(0.361365 -4.30088e-21 -0.0703748)
(0.348004 0 -0.0677716)
(0.335043 0 -0.0652472)
(0.322466 -8.20132e-21 -0.0627981)
(0.310238 -1.85257e-20 -0.0604178)
(0.298348 -2.04373e-20 -0.058104)
(0.286762 1.94846e-23 -0.0558499)
(0.275475 -2.36623e-20 -0.0536547)
(0.26445 0 -0.051511)
(0.253692 2.62364e-20 -0.0494199)
(0.243156 2.72847e-20 -0.0473727)
(0.232861 2.81808e-20 -0.0453727)
(0.222752 0 -0.0434095)
(0.21286 0 -0.0414891)
(0.203121 0 -0.0395986)
(0.193581 -6.12563e-20 -0.0377476)
(0.184159 0 -0.0359198)
(0.174926 0 -0.0341293)
(0.165776 1.25594e-19 -0.0323552)
(0.156811 0 -0.0306174)
(0.147894 0 -0.0288893)
(0.139166 0 -0.0271982)
(0.13045 -1.25441e-19 -0.0255099)
(0.121936 1.24791e-19 -0.0238607)
(0.113398 1.23906e-19 -0.0222073)
(0.105084 2.34574e-23 -0.0205974)
(0.0967108 -1.21572e-19 -0.0189764)
(0.088597 0 -0.0174055)
(0.0803889 1.18553e-19 -0.0158166)
(0.0724902 0 -0.0142874)
(0.0644636 0 -0.0127336)
(0.056815 0 -0.0112526)
(0.0490074 2.84604e-23 -0.00974087)
(0.0416634 2.17309e-19 -0.00831833)
(0.034131 2.12639e-19 -0.00685938)
(0.0271653 -2.07851e-19 -0.00550933)
(0.0199881 -2.02841e-19 -0.00411835)
(0.0134964 0 -0.00285905)
(0.0067783 0 -0.00155594)
(0.000865839 3.74401e-19 -0.000407516)
(-0.00529277 -7.26749e-19 0.000788441)
(-0.0105031 7.04813e-19 0.00180203)
(-0.0160964 3.41089e-19 0.00288967)
(-0.0202936 0 0.00370883)
(-0.0257294 -6.36645e-19 0.0047658)
(-0.0280197 3.0724e-19 0.00521968)
(-0.0341893 -2.9531e-19 0.00641411)
(-0.0342888 5.6927e-19 0.00643747)
(-0.039288 0 0.00741675)
(-0.0429792 0 0.00810205)
(-0.0349266 0 0.00662174)
(-0.0614903 0 0.011649)
(-0.024518 0 0.00460446)
(-0.0671095 0 0.0127977)
(-0.0287227 -4.25957e-19 0.00534291)
(-0.0622385 -7.7274e-19 0.0119533)
(-0.0590878 -7.72859e-19 0.0108286)
(0.000722754 0 0.000513307)
(-0.184133 0 0.0345387)
(0.125094 0 -0.0236548)
(-0.205325 -4.98701e-19 0.0395478)
(-0.0520923 -1.37393e-18 0.00799517)
(0.0928722 5.20543e-19 -0.0154929)
(-0.480331 0 0.0900351)
(0.393321 -1.27336e-18 -0.0743612)
(-0.472923 0 0.090979)
(-0.130351 -1.26762e-18 0.0198023)
(0.290469 9.13027e-19 -0.0514376)
(-0.915437 -7.26434e-19 0.174796)
(0.314956 -1.11564e-18 -0.0631625)
(-0.157711 6.78313e-19 0.0331046)
(-0.278637 -3.44894e-22 0.0506134)
(0.309632 8.04449e-19 -0.0591363)
(0.0175054 0 -0.00209359)
(29.1323 -1.19509e-21 4.02089)
(25.0892 0 1.8559)
(20.2306 -1.90693e-20 -0.21402)
(16.0676 0 -1.2117)
(13.1104 -1.72557e-20 -1.50694)
(11.0691 -3.02865e-20 -1.51788)
(9.59774 -1.40163e-20 -1.44028)
(8.48636 0 -1.34273)
(7.61394 3.55764e-22 -1.2474)
(6.90772 -2.17763e-20 -1.16037)
(6.32211 1.99882e-20 -1.08232)
(5.82709 1.83443e-20 -1.01253)
(5.40206 -1.6833e-20 -0.949993)
(5.03237 1.54426e-20 -0.893732)
(4.70729 2.83811e-20 -0.842887)
(4.41872 0 -0.796726)
(4.1605 -6.46099e-23 -0.754629)
(3.92778 2.17751e-20 -0.716076)
(3.71673 1.99527e-20 -0.680628)
(3.52427 0 -0.647913)
(3.3479 0 -0.617616)
(3.18555 1.51473e-20 -0.589469)
(3.0355 0 -0.563242)
(2.89631 1.25115e-20 -0.538736)
(2.76678 -2.26694e-20 -0.515778)
(2.64585 0 -0.49422)
(2.53265 1.84875e-20 -0.473931)
(2.4264 0 -0.454795)
(2.32643 -1.48904e-20 -0.436711)
(2.23217 -2.65835e-20 -0.419591)
(2.1431 -2.36172e-20 -0.403353)
(2.05877 -1.04312e-20 -0.387926)
(1.97877 9.15977e-21 -0.373248)
(1.90277 3.19521e-20 -0.35926)
(1.83043 2.76018e-20 -0.345911)
(1.76147 0 -0.333155)
(1.69563 0 -0.320948)
(1.63269 -1.73288e-23 -0.309252)
(1.57243 0 -0.298033)
(1.51466 -5.1776e-21 -0.287257)
(1.45921 0 -0.276895)
(1.40592 -5.2167e-21 -0.266921)
(1.35464 0 -0.257307)
(1.30524 -8.87605e-22 -0.248033)
(1.25758 0 -0.239075)
(1.21158 -2.73735e-21 -0.230416)
(1.16709 0 -0.222033)
(1.12405 0 -0.213913)
(1.08235 7.03066e-21 -0.206036)
(1.04191 0 -0.198391)
(1.00263 0 -0.190958)
(0.96447 0 -0.183731)
(0.927321 2.22013e-20 -0.176689)
(0.891162 4.74142e-20 -0.16983)
(0.855874 0 -0.16313)
(0.821468 0 -0.156594)
(0.787806 -2.72605e-20 -0.150194)
(0.754934 -2.81794e-20 -0.143942)
(0.722687 0 -0.137803)
(0.691155 0 -0.131799)
(0.660135 0 -0.125886)
(0.62977 0 -0.120099)
(0.599806 -6.16618e-20 -0.114382)
(0.570457 6.21299e-20 -0.108784)
(0.541398 -1.24879e-19 -0.103235)
(0.512936 0 -0.0978022)
(0.484652 0 -0.0923968)
(0.456969 0 -0.0871097)
(0.429353 4.74383e-23 -0.0818281)
(0.402369 -1.23597e-19 -0.0766722)
(0.375337 -1.2261e-19 -0.0714993)
(0.349003 2.4285e-19 -0.066466)
(0.322506 3.59042e-23 -0.0613929)
(0.29681 -1.18527e-19 -0.056481)
(0.270838 -1.16866e-19 -0.0515065)
(0.245818 0 -0.0467238)
(0.220414 0 -0.0418568)
(0.196168 0 -0.0372229)
(0.171437 2.17644e-19 -0.0324841)
(0.148123 0 -0.0280301)
(0.124231 0 -0.0234519)
(0.10207 2.03428e-19 -0.0192209)
(0.0792575 1.98312e-19 -0.0148499)
(0.0585406 0 -0.0108979)
(0.037121 0 -0.00679503)
(0.0181687 0 -0.0031828)
(-0.00154672 7.07374e-19 0.00059195)
(-0.0183605 -4.17619e-23 0.00379335)
(-0.036318 3.31243e-19 0.00722851)
(-0.0500824 -3.20051e-19 0.00984767)
(-0.0674133 6.16977e-19 0.013158)
(-0.0755099 2.97404e-19 0.0146869)
(-0.094862 5.71147e-19 0.0184103)
(-0.096168 0 0.0185624)
(-0.112455 0 0.0218273)
(-0.123167 0 0.0235788)
(-0.102648 0 0.0200123)
(-0.178496 4.5767e-19 0.0343035)
(-0.0725561 0 0.0137534)
(-0.198743 0 0.0385742)
(-0.085065 -4.08439e-19 0.0158131)
(-0.18649 3.70126e-19 0.036752)
(-0.167515 1.47917e-18 0.0304773)
(-0.0170906 -6.88164e-19 0.00585251)
(-0.520674 0 0.098129)
(0.342098 0 -0.0661278)
(-0.611639 0 0.121804)
(-0.108272 6.54278e-19 0.0134778)
(0.210202 -4.95402e-19 -0.0315213)
(-1.35202 0 0.254941)
(1.09548 2.42024e-18 -0.212024)
(-1.40072 5.6063e-19 0.279626)
(-0.216186 2.40378e-18 0.0252005)
(0.698389 0 -0.119873)
(-2.65484 0 0.511594)
(0.996538 -1.05547e-18 -0.206897)
(-0.562733 0 0.12008)
(-0.709356 -8.16758e-19 0.127641)
(0.905566 -7.59979e-19 -0.178687)
(0.00855989 0 0.00359936)
(31.8749 0 3.89336)
(31.0597 0 2.81637)
(28.5309 -1.29037e-20 1.02239)
(25.1901 0 -0.383312)
(21.9408 0 -1.22648)
(19.1703 1.5058e-20 -1.65076)
(16.9142 1.32736e-20 -1.81879)
(15.0909 0 -1.85027)
(13.6047 4.2038e-22 -1.81652)
(12.3756 2.06301e-20 -1.75401)
(11.3431 -3.76643e-20 -1.68023)
(10.463 -1.73811e-20 -1.60353)
(9.70306 1.14501e-22 -1.52788)
(9.03957 -1.46331e-20 -1.45515)
(8.45457 -1.34203e-20 -1.38611)
(7.93436 1.22526e-20 -1.32102)
(7.46828 -2.25408e-20 -1.25988)
(7.04791 -2.0635e-20 -1.20251)
(6.66653 0 -1.1487)
(6.31867 0 -1.09822)
(5.99989 1.57114e-20 -1.0508)
(5.7065 1.4322e-20 -1.00621)
(5.43541 0 -0.96423)
(5.18404 0 -0.924647)
(4.9502 2.14806e-20 -0.887272)
(4.73201 0 -0.851929)
(4.52786 -3.50291e-20 -0.81846)
(4.33636 1.57482e-20 -0.786721)
(4.15629 0 -0.75658)
(3.9866 1.25957e-20 -0.727918)
(3.82636 1.11905e-20 -0.700626)
(3.67475 0 -0.674608)
(3.53103 -8.69016e-21 -0.649771)
(3.39457 -1.51411e-20 -0.626034)
(3.26477 1.21093e-23 -0.603322)
(3.14113 0 -0.581567)
(3.02317 0 -0.560704)
(2.91048 7.79305e-21 -0.540676)
(2.80266 0 -0.521428)
(2.69938 0 -0.502913)
(2.60031 0 -0.485083)
(2.50516 0 -0.467896)
(2.41367 0 -0.451312)
(2.32559 0 -0.435296)
(2.2407 0 -0.419811)
(2.15879 2.54769e-21 -0.404828)
(2.07965 -4.04235e-21 -0.390313)
(2.00314 0 -0.376244)
(1.92905 -6.65166e-21 -0.362585)
(1.85726 0 -0.349324)
(1.78758 0 -0.336422)
(1.71994 1.93208e-20 -0.323874)
(1.65413 0 -0.311641)
(1.59012 -2.2402e-20 -0.299723)
(1.5277 2.36504e-20 -0.288077)
(1.46688 0 -0.276715)
(1.40741 2.57672e-20 -0.265586)
(1.34938 0 -0.254713)
(1.29249 0 -0.244035)
(1.2369 0 -0.233592)
(1.18224 5.68107e-20 -0.223306)
(1.12877 5.76033e-20 -0.213239)
(1.07604 2.85144e-23 -0.203292)
(1.02441 -1.1731e-19 -0.193553)
(0.973332 2.50079e-23 -0.183897)
(0.923315 0 -0.174445)
(0.873647 0 -0.165039)
(0.825041 -1.17771e-19 -0.155841)
(0.776586 3.82228e-23 -0.146649)
(0.729239 0 -0.137679)
(0.681839 0 -0.128675)
(0.635651 -1.14488e-19 -0.119917)
(0.589207 2.89033e-23 -0.111085)
(0.544146 2.68787e-23 -0.102536)
(0.498628 0 -0.0938727)
(0.454742 0 -0.0855447)
(0.410209 -2.12992e-19 -0.0770638)
(0.367652 2.09078e-19 -0.0689895)
(0.32427 0 -0.0607251)
(0.283303 0 -0.0529565)
(0.241343 0 -0.0449624)
(0.202334 0 -0.0375726)
(0.1622 0 -0.0299279)
(0.125638 0 -0.0230123)
(0.0878597 0 -0.0158198)
(0.0542923 0 -0.00948051)
(0.0194042 -6.65034e-19 -0.00284562)
(-0.0105325 -3.22083e-19 0.00280431)
(-0.0423893 -3.11326e-19 0.00884767)
(-0.067197 3.00745e-19 0.0135338)
(-0.0977886 -5.79587e-19 0.0193041)
(-0.113168 -2.79349e-19 0.0222053)
(-0.146875 -2.68171e-19 0.0286311)
(-0.150607 0 0.0290968)
(-0.179734 0 0.0350941)
(-0.197381 0 0.0375364)
(-0.167982 0 0.0332699)
(-0.289919 -4.2937e-19 0.0552416)
(-0.119653 0 0.022747)
(-0.328554 0 0.0639519)
(-0.140385 3.82963e-19 0.0256152)
(-0.31122 0 0.0623341)
(-0.268196 -6.93149e-19 0.0463923)
(-0.0520737 6.44888e-19 0.0182759)
(-0.830226 0 0.151661)
(0.527098 0 -0.100967)
(-1.01345 0 0.206507)
(-0.123778 6.1227e-19 0.00183273)
(0.26566 0 -0.022168)
(-2.14413 -4.45222e-19 0.392313)
(1.71438 5.12975e-22 -0.329836)
(-2.31094 -5.2469e-19 0.472905)
(-0.143252 -2.24754e-18 -0.0236655)
(0.949442 0 -0.13059)
(-4.2981 6.42083e-19 0.823319)
(1.71485 9.87271e-19 -0.374725)
(-1.04762 6.00844e-19 0.2385)
(-1.00666 0 0.161564)
(1.47891 7.10607e-19 -0.296303)
(-0.0371899 0 0.0251043)
(32.397 0 2.95302)
(32.9618 0 2.76675)
(32.4079 1.21982e-20 1.72255)
(30.7649 0 0.521461)
(28.5123 -1.22456e-20 -0.48358)
(26.0968 2.49136e-20 -1.2064)
(23.778 0 -1.66936)
(21.6723 -2.17405e-20 -1.93342)
(19.813 2.08439e-20 -2.06256)
(18.1906 1.88442e-20 -2.1068)
(16.7775 1.77082e-20 -2.09997)
(15.5428 -1.60902e-20 -2.06333)
(14.4577 1.4976e-20 -2.00984)
(13.4981 -2.72937e-20 -1.94731)
(12.644 0 -1.88047)
(11.8789 -2.31134e-20 -1.8122)
(11.1897 0 -1.74423)
(10.5654 0 -1.67761)
(9.9971 0 -1.61297)
(9.47744 1.62345e-20 -1.55063)
(9.00027 -3.41728e-23 -1.49077)
(8.56041 -2.59948e-23 -1.43343)
(8.15351 1.23087e-20 -1.3786)
(7.77587 0 -1.32621)
(7.42433 0 -1.27618)
(7.09617 0 -1.22841)
(6.78903 3.3115e-20 -1.18278)
(6.50087 -5.99346e-24 -1.13919)
(6.22991 0 -1.09752)
(5.97458 0 -1.05766)
(5.7335 0 -1.01951)
(5.50544 0 -0.982969)
(5.28931 1.64378e-20 -0.947945)
(5.08416 0 -0.914349)
(4.8891 -1.23782e-20 -0.882096)
(4.70336 0 -0.851108)
(4.52623 0 -0.821311)
(4.35709 -7.39043e-21 -0.792637)
(4.19534 0 -0.765019)
(4.04047 0 -0.738399)
(3.892 3.47184e-21 -0.712717)
(3.74948 -4.73856e-21 -0.687922)
(3.61252 0 -0.663961)
(3.48074 -8.59789e-22 -0.64079)
(3.3538 0 -0.618359)
(3.23139 -4.79427e-21 -0.596633)
(3.11321 1.8869e-23 -0.575564)
(2.999 0 -0.555124)
(2.88848 0 -0.535266)
(2.78146 7.30378e-21 -0.515971)
(2.67766 1.65076e-20 -0.497189)
(2.57695 -3.64582e-20 -0.478911)
(2.47904 0 -0.461083)
(2.38386 -2.10989e-20 -0.443707)
(2.29111 -2.23251e-20 -0.426723)
(2.20079 -2.33564e-20 -0.410146)
(2.11254 -2.4276e-20 -0.393904)
(2.02647 0 -0.378033)
(1.94215 0 -0.362444)
(1.85979 -5.26259e-20 -0.347194)
(1.77888 -1.07144e-19 -0.332173)
(1.69975 -5.43297e-20 -0.317468)
(1.62178 3.05873e-23 -0.302939)
(1.54547 5.52941e-20 -0.288712)
(1.47002 5.55413e-20 -0.274606)
(1.39616 0 -0.260796)
(1.32287 0 -0.247054)
(1.25115 1.10985e-19 -0.233613)
(1.17971 2.20907e-19 -0.220183)
(1.10989 0 -0.207073)
(1.04004 1.08827e-19 -0.193915)
(0.971967 1.07762e-19 -0.181113)
(0.903552 1.06548e-19 -0.168203)
(0.837145 2.10313e-19 -0.155701)
(0.770098 0 -0.143033)
(0.70541 0 -0.130849)
(0.639796 2.00431e-19 -0.118441)
(0.577025 -3.93383e-19 -0.10662)
(0.513063 -1.92702e-19 -0.0945189)
(0.452565 0 -0.0831328)
(0.390627 0 -0.0714149)
(0.332917 0 -0.0605686)
(0.273569 0 -0.049346)
(0.219343 0 -0.039176)
(0.163335 0 -0.0285943)
(0.113372 -3.22224e-19 -0.0192466)
(0.0614792 4.04257e-23 -0.00946013)
(0.0166934 3.02428e-19 -0.00108885)
(-0.0308149 0 0.00783279)
(-0.0683496 2.82298e-19 0.0148629)
(-0.113773 2.7201e-19 0.0233103)
(-0.138137 0 0.0278886)
(-0.187533 -2.51594e-19 0.0371812)
(-0.195169 -4.84274e-19 0.0381667)
(-0.238823 0 0.0472735)
(-0.263514 0 0.0500635)
(-0.229131 0 0.0463345)
(-0.393616 -4.02463e-19 0.0746151)
(-0.164813 0 0.0315613)
(-0.454648 0 0.0889571)
(-0.193522 3.58832e-19 0.0348434)
(-0.434874 -3.25048e-19 0.0884639)
(-0.36061 0 0.0597705)
(-0.102308 0 0.0358383)
(-1.1104 0 0.198062)
(0.677406 0 -0.129017)
(-1.40389 0 0.291893)
(-0.103805 -2.05093e-22 -0.0212568)
(0.262885 0 0.00605625)
(-2.8472 4.16625e-19 0.509263)
(2.23767 -1.06056e-18 -0.43102)
(-3.19072 0 0.666993)
(0.0758396 8.98509e-22 -0.109511)
(1.05516 0 -0.0984019)
(-5.80767 -7.06479e-22 1.10645)
(2.43449 0 -0.555152)
(-1.59825 -5.61767e-19 0.378655)
(-1.1529 0 0.158163)
(2.01805 6.6447e-19 -0.410035)
(-0.113183 0 0.0579669)
(32.4997 0 2.10149)
(33.2567 0 2.22679)
(33.6026 0 1.75171)
(33.2379 0 0.957728)
(32.2151 1.15589e-20 0.115947)
(30.7412 -9.00085e-22 -0.633168)
(29.0219 0 -1.2342)
(27.2158 2.052e-20 -1.67798)
(25.4326 0 -1.98169)
(23.7383 -3.50732e-20 -2.17357)
(22.1654 0 -2.28221)
(20.7239 1.51903e-20 -2.33161)
(19.4112 0 -2.34007)
(18.2188 2.57695e-20 -2.32082)
(17.1352 -1.17344e-20 -2.28319)
(16.1492 2.16779e-20 -2.2336)
(15.2496 -1.98397e-20 -2.17652)
(14.4266 -1.82058e-20 -2.11498)
(13.6714 0 -2.05111)
(12.9764 -1.53298e-20 -1.98636)
(12.3348 -1.40005e-20 -1.92172)
(11.7408 -2.54982e-20 -1.85787)
(11.1893 -1.16227e-20 -1.79526)
(10.676 0 -1.7342)
(10.1971 0 -1.67488)
(9.74905 0 -1.61739)
(9.32906 -1.56291e-20 -1.56178)
(8.93451 -1.40568e-20 -1.50808)
(8.5631 0 -1.45626)
(8.21282 0 -1.40628)
(7.88185 9.99299e-21 -1.3581)
(7.56861 0 -1.31166)
(7.27164 1.38006e-24 -1.26689)
(6.98968 -1.35382e-20 -1.22373)
(6.72154 1.17009e-20 -1.1821)
(6.46621 0 -1.14195)
(6.22271 0 -1.10319)
(5.9902 6.97525e-21 -1.06578)
(5.7679 0 -1.02964)
(5.55509 0 -0.994708)
(5.35111 -3.27625e-21 -0.960929)
(5.15538 4.47133e-21 -0.928247)
(4.96733 0 -0.8966)
(4.78648 8.11195e-22 -0.865944)
(4.61232 0 -0.836219)
(4.44446 2.25204e-21 -0.807387)
(4.28246 3.58439e-21 -0.77939)
(4.12599 0 -0.752198)
(3.97465 5.87802e-21 -0.725751)
(3.82817 -6.88788e-21 -0.70003)
(3.68618 -3.11027e-20 -0.674971)
(3.54848 1.71743e-20 -0.650567)
(3.41469 -1.85846e-20 -0.626746)
(3.2847 2.54385e-23 -0.603517)
(3.1581 0 -0.580797)
(3.03488 2.20143e-20 -0.558614)
(2.91457 2.28787e-20 -0.53687)
(2.79728 -2.36045e-20 -0.515615)
(2.68246 2.42396e-20 -0.494729)
(2.57036 4.95811e-20 -0.474294)
(2.4603 5.04503e-20 -0.45416)
(2.35272 -5.11123e-20 -0.434446)
(2.24677 5.16689e-20 -0.414964)
(2.14313 0 -0.395883)
(2.04071 0 -0.376963)
(1.94049 5.23478e-20 -0.358438)
(1.84109 0 -0.340001)
(1.74385 0 -0.321966)
(1.64702 -1.03929e-19 -0.303944)
(1.55242 0 -0.286348)
(1.45782 -1.02389e-19 -0.268686)
(1.36561 -2.02714e-19 -0.251497)
(1.27298 0 -0.234162)
(1.18304 -9.88802e-20 -0.21737)
(1.09227 0 -0.200352)
(1.00464 0 -0.183977)
(0.91578 -1.88321e-19 -0.167297)
(0.830683 1.84847e-19 -0.151396)
(0.743998 3.91112e-23 -0.135115)
(0.66188 0 -0.119782)
(0.577834 0 -0.103996)
(0.499358 0 -0.0893679)
(0.418678 -1.64647e-19 -0.0742251)
(0.344746 1.60283e-19 -0.060481)
(0.268405 0 -0.0461704)
(0.200041 6.04907e-19 -0.0335017)
(0.129073 2.93106e-19 -0.0202283)
(0.0674822 -5.67566e-19 -0.00883371)
(0.00232938 -2.74201e-19 0.00327909)
(-0.0498452 -5.29623e-19 0.0129703)
(-0.111905 0 0.0243439)
(-0.147195 0 0.0309536)
(-0.213804 2.3591e-19 0.0433066)
(-0.227102 4.54014e-19 0.0450736)
(-0.287109 -4.34063e-19 0.0577425)
(-0.319179 0 0.0605904)
(-0.283933 0 0.0587966)
(-0.487292 3.77083e-19 0.0917297)
(-0.206768 3.67818e-19 0.0398938)
(-0.574835 0 0.113015)
(-0.243162 -3.36055e-19 0.0431557)
(-0.555687 3.04372e-19 0.114791)
(-0.444395 0 0.0700752)
(-0.164903 0 0.0587132)
(-1.36001 0 0.23515)
(0.792398 0 -0.147901)
(-1.77645 0 0.376156)
(-0.0563934 -5.36027e-19 -0.0559934)
(0.209928 0 0.0548851)
(-3.45557 0 0.599126)
(2.65836 0 -0.508841)
(-4.02982 4.58277e-19 0.857793)
(0.415581 9.81755e-19 -0.234241)
(1.04125 0 -0.018068)
(-7.14829 -5.60708e-19 1.34461)
(3.10906 0 -0.739769)
(-2.19767 -5.25558e-19 0.539913)
(-1.14117 0 0.108489)
(2.51185 -6.20972e-19 -0.515337)
(-0.210092 0 0.103117)
(32.5718 -4.92587e-21 1.48792)
(33.1546 -6.12805e-21 1.62743)
(33.6807 7.28798e-21 1.43648)
(33.9058 8.22109e-21 0.975617)
(33.713 0 0.383773)
(33.114 -9.86729e-21 -0.232074)
(32.1824 0 -0.806111)
(31.009 1.7333e-20 -1.30132)
(29.6826 1.65726e-20 -1.70227)
(28.2794 3.19659e-20 -2.0094)
(26.8588 -1.4705e-20 -2.23242)
(25.4631 1.37203e-20 -2.38482)
(24.1193 0 -2.48053)
(22.8431 0 -2.53217)
(21.6417 1.1063e-20 -2.55036)
(20.517 -1.14385e-22 -2.54364)
(19.4671 1.75788e-22 -2.51866)
(18.4888 1.35677e-22 -2.48048)
(17.5774 0 -2.43294)
(16.7281 0 -2.37893)
(15.9359 0 -2.3206)
(15.1962 2.39583e-20 -2.25955)
(14.5045 1.08944e-20 -2.19699)
(13.8567 0 -2.1338)
(13.2492 0 -2.07064)
(12.6785 1.62772e-20 -2.008)
(12.1415 0 -1.94623)
(11.6354 0 -1.88558)
(11.1578 0 -1.82623)
(10.7063 0 -1.76829)
(10.2789 -6.37066e-24 -1.71184)
(9.87371 0 -1.65693)
(9.48906 -1.59211e-24 -1.60356)
(9.12342 1.27618e-20 -1.55174)
(8.77539 2.65194e-24 -1.50145)
(8.44371 0 -1.45266)
(8.12721 0 -1.40534)
(7.82485 0 -1.35945)
(7.53564 0 -1.31493)
(7.25871 0 -1.27176)
(6.99323 0 -1.22987)
(6.73845 0 -1.18922)
(6.49367 -2.45042e-21 -1.14975)
(6.25825 -8.00675e-22 -1.11142)
(6.03159 0 -1.07418)
(5.81315 2.08704e-21 -1.03799)
(5.60238 0 -1.00278)
(5.39886 0 -0.968528)
(5.20206 -1.10574e-20 -0.935168)
(5.01165 0 -0.902681)
(4.82714 1.46315e-20 -0.870992)
(4.64827 0 -0.840099)
(4.47456 3.49729e-20 -0.809916)
(4.30585 2.46615e-23 -0.780457)
(4.14162 0 -0.751623)
(3.98184 0 -0.72345)
(3.82591 0 -0.695818)
(3.67397 4.44132e-20 -0.668793)
(3.52531 -4.56055e-20 -0.642226)
(3.38023 -4.65877e-20 -0.61622)
(3.23787 -4.74049e-20 -0.590587)
(3.09878 9.61448e-20 -0.565482)
(2.96187 4.85491e-20 -0.540663)
(2.82799 0 -0.51635)
(2.69577 0 -0.492235)
(2.56642 -2.43964e-23 -0.468619)
(2.4382 0 -0.44511)
(2.31279 0 -0.42211)
(2.18798 -9.76256e-20 -0.39912)
(2.06605 0 -0.37667)
(1.94417 0 -0.354131)
(1.82535 1.90439e-19 -0.33219)
(1.70605 -9.40809e-20 -0.310058)
(1.59017 0 -0.288612)
(1.47326 0 -0.26687)
(1.36031 0 -0.245941)
(1.24582 1.76862e-19 -0.224617)
(1.13606 0 -0.204275)
(1.02428 3.39939e-19 -0.183438)
(0.918231 -1.66307e-19 -0.163797)
(0.809705 0 -0.143568)
(0.708166 0 -0.124799)
(0.603783 1.54502e-19 -0.10536)
(0.507863 -2.56471e-23 -0.0876866)
(0.408827 1.46089e-19 -0.0692714)
(0.319806 -2.83678e-19 -0.052933)
(0.227422 2.74817e-19 -0.035802)
(0.146816 2.66095e-19 -0.0210423)
(0.0617503 2.57089e-19 -0.00538897)
(-0.00723556 2.81968e-23 0.00731602)
(-0.0880081 0 0.0219049)
(-0.136435 -2.30346e-19 0.0309366)
(-0.222015 0 0.0465665)
(-0.243041 0 0.0494391)
(-0.321401 4.06636e-19 0.0660886)
(-0.361489 0 0.0686892)
(-0.32974 0 0.070275)
(-0.568189 0 0.106277)
(-0.243787 -3.44393e-19 0.0477467)
(-0.686453 0 0.135713)
(-0.287709 -3.14554e-19 0.0503142)
(-0.671608 0 0.140954)
(-0.518824 0 0.0773725)
(-0.236614 0 0.0861889)
(-1.57785 0 0.263464)
(0.872304 0 -0.159208)
(-2.12488 -3.64577e-19 0.457577)
(0.00943139 -5.00987e-19 -0.0999732)
(0.116402 3.81003e-19 0.122036)
(-3.96441 0 0.663311)
(2.9722 0 -0.566084)
(-4.81921 -8.5646e-19 1.0415)
(0.842571 0 -0.388662)
(0.938672 6.66278e-19 0.103603)
(-8.2826 0 1.53774)
(3.68735 8.05943e-19 -0.91783)
(-2.82975 4.91124e-19 0.716917)
(-0.975689 0 0.014371)
(2.95019 -5.8049e-19 -0.608677)
(-0.317789 0 0.158507)
(32.6263 4.63883e-21 1.03631)
(33.037 1.12955e-20 1.12327)
(33.4827 -6.86489e-21 1.04028)
(33.8474 -7.81063e-22 0.776996)
(34.0204 7.44459e-21 0.386803)
(33.9456 0 -0.068389)
(33.6151 0 -0.539479)
(33.0491 -1.63215e-20 -0.990734)
(32.283 -3.03088e-20 -1.39853)
(31.3591 -7.07945e-22 -1.74982)
(30.3211 1.38455e-20 -2.0401)
(29.2096 -1.29183e-20 -2.27074)
(28.0594 1.16782e-20 -2.44655)
(26.8989 0 -2.57412)
(25.7496 0 -2.66064)
(24.6269 -9.47631e-21 -2.7131)
(23.5414 3.46628e-20 -2.73789)
(22.4995 3.18898e-20 -2.74059)
(21.5047 0 -2.72589)
(20.5582 0 -2.6977)
(19.66 0 -2.65916)
(18.8089 -6.71405e-23 -2.61283)
(18.003 -2.04643e-20 -2.56072)
(17.2403 9.28865e-21 -2.50446)
(16.5185 1.68682e-20 -2.4453)
(15.835 -3.06038e-20 -2.38425)
(15.1876 1.37968e-20 -2.32209)
(14.574 1.24206e-20 -2.25944)
(13.9919 1.11418e-20 -2.19677)
(13.4393 0 -2.13446)
(12.9142 -8.86392e-21 -2.07279)
(12.4148 7.82981e-21 -2.01198)
(11.9394 -6.88747e-21 -1.95217)
(11.4863 -1.20086e-20 -1.8935)
(11.0542 -2.07693e-20 -1.83604)
(10.6416 0 -1.77986)
(10.2472 0 -1.72497)
(9.86999 -6.20784e-21 -1.6714)
(9.50875 0 -1.61915)
(9.1625 3.93392e-21 -1.56822)
(8.83029 2.93024e-21 -1.51857)
(8.51126 0 -1.4702)
(8.20458 4.62764e-21 -1.42306)
(7.90951 7.53486e-22 -1.37714)
(7.62531 0 -1.33238)
(7.35136 -1.96382e-21 -1.28876)
(7.08698 -3.13022e-21 -1.24623)
(6.83167 0 -1.20476)
(6.58479 1.03736e-20 -1.16429)
(6.34594 -6.06075e-21 -1.12481)
(6.11451 -1.37095e-20 -1.08623)
(5.8902 0 -1.04857)
(5.67238 -2.49539e-23 -1.01173)
(5.4609 3.51101e-20 -0.975722)
(5.25509 0 -0.940443)
(5.05491 0 -0.905941)
(4.85963 -2.01896e-20 -0.87207)
(4.66941 -2.08689e-20 -0.838919)
(4.48335 4.2838e-20 -0.806305)
(4.30185 4.37935e-20 -0.774361)
(4.12383 4.45578e-20 -0.742856)
(3.94996 -4.51665e-20 -0.711985)
(3.77889 -9.12211e-20 -0.681451)
(3.61166 0 -0.651528)
(3.44657 0 -0.621836)
(3.28511 -9.24321e-20 -0.59275)
(3.12513 0 -0.563784)
(2.9687 0 -0.535437)
(2.81307 9.16915e-20 -0.507093)
(2.66104 0 -0.479408)
(2.50913 -9.02659e-20 -0.451603)
(2.36103 -3.24084e-23 -0.424529)
(2.21236 8.83241e-20 -0.397207)
(2.06791 0 -0.370724)
(1.92221 0 -0.343864)
(1.78137 0 -0.317998)
(1.63862 1.65876e-19 -0.291629)
(1.50164 0 -0.26646)
(1.36214 -1.5944e-19 -0.240664)
(1.22961 3.11972e-19 -0.216329)
(1.09397 0 -0.191248)
(0.966822 0 -0.16795)
(0.836099 0 -0.143803)
(0.715645 -2.53495e-23 -0.121814)
(0.591264 -1.36954e-19 -0.0988804)
(0.479056 -2.65826e-19 -0.0784904)
(0.362616 -2.5757e-19 -0.0570898)
(0.2605 2.49297e-19 -0.0385896)
(0.152943 0 -0.0190006)
(0.0646838 2.32546e-19 -0.00289637)
(-0.037189 0 0.0152346)
(-0.101267 2.15757e-19 0.0271201)
(-0.207851 0 0.0462739)
(-0.239015 0 0.0506227)
(-0.337945 0 0.0717141)
(-0.387033 -3.65045e-19 0.0736883)
(-0.363333 -3.4957e-19 0.0802781)
(-0.633171 0 0.117624)
(-0.273706 3.22303e-19 0.054722)
(-0.786362 -2.9685e-19 0.156472)
(-0.32527 2.94321e-19 0.0560149)
(-0.780251 -2.66477e-19 0.166537)
(-0.582861 0 0.0815081)
(-0.313784 0 0.117607)
(-1.76319 0 0.28264)
(0.919635 0 -0.161948)
(-2.4434 3.40911e-19 0.534536)
(0.0838019 1.72753e-22 -0.151183)
(-0.00669378 -7.12598e-19 0.205665)
(-4.37268 0 0.700747)
(3.18223 0 -0.597552)
(-5.55021 4.00046e-19 1.2143)
(1.31468 0 -0.565536)
(0.781621 -6.22633e-19 0.262192)
(-9.18006 0 1.67378)
(4.1234 -1.50599e-18 -1.07879)
(-3.47813 0 0.904489)
(-0.678479 0 -0.122504)
(3.32561 5.42269e-19 -0.686466)
(-0.42493 0 0.222596)
(32.6508 0 0.683505)
(32.9519 -5.19646e-21 0.72671)
(33.2886 0 0.677151)
(33.6187 -6.55071e-21 0.51408)
(33.8792 -1.33595e-20 0.252312)
(34.0193 0 -0.0764513)
(34.0104 6.6674e-21 -0.440811)
(33.8412 0 -0.81468)
(33.5122 8.99705e-22 -1.17786)
(33.0329 -2.56866e-20 -1.51589)
(32.4194 0 -1.81943)
(31.6919 0 -2.0836)
(30.8728 -1.09839e-20 -2.3068)
(29.9842 0 -2.48976)
(29.0474 0 -2.63476)
(28.0812 0 -2.74509)
(27.1018 -1.61917e-20 -2.8245)
(26.1225 -1.49119e-20 -2.87697)
(25.154 -1.35244e-20 -2.90637)
(24.2042 0 -2.91633)
(23.279 0 -2.91014)
(22.3822 -1.05241e-20 -2.89071)
(21.5166 9.59895e-21 -2.86054)
(20.6836 -8.73623e-21 -2.82178)
(19.8835 -1.58649e-20 -2.77623)
(19.1166 2.86676e-20 -2.72541)
(18.3821 -5.40563e-23 -2.67057)
(17.6792 -1.16815e-20 -2.61273)
(17.0069 -1.04787e-20 -2.55275)
(16.364 0 -2.49133)
(15.7493 0 -2.42902)
(15.1612 -7.3634e-21 -2.36629)
(14.5987 0 -2.3035)
(14.0603 1.12928e-20 -2.24096)
(13.5448 9.76417e-21 -2.17889)
(13.051 -8.34525e-21 -2.11749)
(12.5776 0 -2.05691)
(12.1236 5.83709e-21 -1.99724)
(11.6878 4.72652e-21 -1.93858)
(11.2693 3.76532e-24 -1.88098)
(10.8671 -5.51472e-21 -1.82449)
(10.4802 0 -1.76914)
(10.1078 -2.18246e-21 -1.71492)
(9.74914 0 -1.66186)
(9.40332 0 -1.60993)
(9.06971 0 -1.55913)
(8.74754 1.3837e-23 -1.50943)
(8.43623 0 -1.46083)
(8.13507 -4.8678e-21 -1.41327)
(7.8436 1.13782e-20 -1.36675)
(7.5611 1.2883e-20 -1.3212)
(7.28725 0 -1.27663)
(7.02129 -1.54185e-20 -1.23295)
(6.76306 -3.29421e-20 -1.1902)
(6.51174 0 -1.14824)
(6.26734 0 -1.10716)
(6.02893 1.89652e-20 -1.06677)
(5.79673 1.95647e-20 -1.0272)
(5.56966 -2.01084e-20 -0.988221)
(5.34819 -4.1062e-20 -0.950017)
(5.13102 0 -0.912302)
(4.91896 0 -0.875322)
(4.71038 2.86004e-23 -0.838718)
(4.50653 -4.3088e-20 -0.802826)
(4.30535 0 -0.767188)
(4.10864 4.33711e-20 -0.732262)
(3.91379 0 -0.697458)
(3.72329 0 -0.663388)
(3.53382 0 -0.629301)
(3.34874 0 -0.595996)
(3.16384 3.441e-23 -0.562527)
(2.98358 -3.21205e-23 -0.529928)
(2.80264 -8.27966e-20 -0.497011)
(2.6268 0 -0.465094)
(2.44943 -8.04688e-20 -0.432702)
(2.2779 0 -0.401496)
(2.10402 -1.55542e-19 -0.36966)
(1.93704 1.52547e-19 -0.339256)
(1.76695 -1.49402e-19 -0.308069)
(1.60514 -1.46205e-19 -0.278625)
(1.43951 0 -0.248251)
(1.28394 1.39304e-19 -0.220008)
(1.12395 0 -0.190702)
(0.976138 -1.32072e-19 -0.163978)
(0.823451 -1.28269e-19 -0.13607)
(0.685231 2.49027e-19 -0.11121)
(0.541766 0 -0.0850826)
(0.415334 -4.66949e-19 -0.062427)
(0.28236 0 -0.0384574)
(0.172043 2.17702e-19 -0.0185349)
(0.0463232 0 0.00350175)
(-0.0362416 2.01949e-19 0.0187518)
(-0.166201 0 0.0417003)
(-0.210281 3.72724e-19 0.0479599)
(-0.332258 -3.56251e-19 0.0739594)
(-0.391661 3.41609e-19 0.0752655)
(-0.380863 3.27094e-19 0.088225)
(-0.678544 0 0.125252)
(-0.293719 -6.03034e-19 0.0605043)
(-0.870872 5.55336e-19 0.174651)
(-0.353582 0 0.0599248)
(-0.878809 2.4922e-19 0.19106)
(-0.635019 0 0.0822891)
(-0.392444 0 0.152222)
(-1.91556 -4.15244e-19 0.292789)
(0.938265 0 -0.157282)
(-2.7267 0 0.605587)
(0.157138 4.37692e-19 -0.207426)
(-0.148115 6.66373e-19 0.303358)
(-4.68314 3.16618e-19 0.712664)
(3.29643 0 -0.604828)
(-6.2133 0 1.3725)
(1.78581 0 -0.756059)
(0.60254 0 0.451437)
(-9.81713 4.54674e-19 1.75228)
(4.38819 7.03388e-19 -1.21464)
(-4.12448 0 1.09608)
(-0.28912 0 -0.295622)
(3.6336 0 -0.745929)
(-0.519321 0 0.293176)
(32.6497 4.1519e-21 0.395466)
(32.8816 0 0.411363)
(33.137 4.87058e-21 0.370678)
(33.4016 0 0.25739)
(33.6442 5.97339e-21 0.0720408)
(33.8336 0 -0.170683)
(33.9467 -6.2665e-21 -0.451662)
(33.9686 1.14883e-20 -0.752967)
(33.8899 2.34624e-20 -1.05945)
(33.7061 7.27612e-22 -1.35911)
(33.4167 0 -1.64296)
(33.0251 0 -1.90478)
(32.5379 0 -2.14071)
(31.9643 0 -2.34866)
(31.3153 0 -2.52791)
(30.6029 0 -2.67869)
(29.8395 1.45864e-20 -2.80204)
(29.0375 -1.35122e-20 -2.89955)
(28.2084 1.27076e-20 -2.97318)
(27.3627 0 -3.02517)
(26.5096 0 -3.05783)
(25.6568 9.68867e-21 -3.07349)
(24.8109 8.86037e-21 -3.0744)
(23.977 8.08242e-21 -3.06267)
(23.1591 0 -3.04023)
(22.3602 -1.3435e-20 -3.0088)
(21.5826 -2.42079e-20 -2.96994)
(20.8277 1.08774e-20 -2.92499)
(20.0963 0 -2.87512)
(19.3891 0 -2.82132)
(18.706 0 -2.76447)
(18.0469 6.88345e-21 -2.70529)
(17.4113 0 -2.6444)
(16.7989 0 -2.58232)
(16.2089 9.1472e-21 -2.51947)
(15.6405 7.83959e-21 -2.45623)
(15.0931 0 -2.39289)
(14.5658 5.47937e-21 -2.32971)
(14.0577 -8.878e-21 -2.26687)
(13.5681 -3.47774e-21 -2.20456)
(13.0961 2.59217e-21 -2.14289)
(12.6409 0 -2.08197)
(12.2017 0 -2.02189)
(11.7778 0 -1.9627)
(11.3683 -5.51016e-22 -1.90445)
(10.9726 0 -1.84718)
(10.5899 2.74983e-21 -1.79087)
(10.2197 3.68597e-21 -1.73559)
(9.86109 0 -1.68127)
(9.51375 -5.33541e-21 -1.62797)
(9.17681 0 -1.5756)
(8.84997 0 -1.52424)
(8.53238 -1.44294e-20 -1.47375)
(8.22386 2.18242e-23 -1.42423)
(7.9235 1.63122e-20 -1.37553)
(7.63131 0 -1.32774)
(7.34623 0 -1.28069)
(7.06854 -1.83614e-20 -1.23451)
(6.79695 0 -1.18896)
(6.53206 3.85313e-20 -1.14426)
(6.27231 0 -1.10008)
(6.01868 0 -1.05671)
(5.76923 8.02471e-20 -1.01373)
(5.52546 8.08158e-20 -0.971564)
(5.28491 4.05647e-20 -0.929649)
(5.04973 0 -0.888549)
(4.81679 0 -0.847554)
(4.58908 4.04907e-20 -0.807405)
(4.36261 8.0579e-20 -0.767199)
(4.14141 0 -0.727903)
(3.92042 7.93751e-20 -0.688378)
(3.70496 -7.8562e-20 -0.649869)
(3.48869 7.76163e-20 -0.610947)
(3.27845 -7.65493e-20 -0.573198)
(3.06636 7.54211e-20 -0.534849)
(2.86115 0 -0.497892)
(2.65308 0 -0.460148)