/*--------------------------------*- C++ -*----------------------------------*\
| =========                 |                                                 |
| \\      /  F ield         | OpenFOAM: The Open Source CFD Toolbox           |
|  \\    /   O peration     | Version:  2412                                  |
|   \\  /    A nd           | Website:  www.openfoam.com                      |
|    \\/     M anipulation  |                                                 |
\*---------------------------------------------------------------------------*/
FoamFile
{
    version     2.0;
    format      ascii;
    arch        "LSB;label=32;scalar=64";
    class       volVectorField;
    location    "0.695";
    object      U;
}
// * * * * * * * * * * * * * * * * * * * * * * * * * * * * * * * * * * * * * //

dimensions      [0 1 -1 0 0 0 0];

internalField   nonuniform List<vector> 
12600
(
(18.713 1.21955e-21 2.08697)
(11.608 1.60622e-20 0.448723)
(7.34751 1.88993e-20 -0.478208)
(5.0893 0 -0.709185)
(3.9778 1.70966e-20 -0.682333)
(3.33774 1.59269e-20 -0.607729)
(2.89686 0 -0.540117)
(2.56583 0 -0.484751)
(2.30631 -4.7923e-20 -0.439347)
(2.09622 0 -0.401639)
(1.92186 2.0113e-20 -0.369788)
(1.77431 1.84222e-20 -0.342471)
(1.64747 -1.6882e-20 -0.318741)
(1.53701 0 -0.297904)
(1.43974 -1.41587e-20 -0.279435)
(1.35328 0 -0.262934)
(1.27581 4.76099e-20 -0.248085)
(1.20589 0 -0.234638)
(1.1424 -1.99413e-20 -0.222394)
(1.08442 -1.82455e-20 -0.211187)
(1.03122 1.6663e-20 -0.200885)
(0.98219 5.57807e-24 -0.191374)
(0.93682 0 -0.182562)
(0.894685 -2.51756e-20 -0.17437)
(0.855427 0 -0.16673)
(0.818737 0 -0.159584)
(0.784354 -1.87005e-20 -0.152884)
(0.75205 0 -0.146585)
(0.721626 3.9006e-24 -0.140652)
(0.692912 1.35488e-20 -0.135049)
(0.665753 1.2076e-20 -0.129749)
(0.640018 1.07114e-20 -0.124726)
(0.615587 -9.44757e-21 -0.119957)
(0.592354 -1.65549e-20 -0.115421)
(0.570225 -1.43891e-20 -0.111101)
(0.549115 1.23754e-20 -0.106979)
(0.528948 0 -0.103043)
(0.509655 -8.82364e-21 -0.0992764)
(0.491173 0 -0.0956691)
(0.473446 5.78857e-21 -0.0922094)
(0.456421 0 -0.0888874)
(0.440051 1.72745e-23 -0.0856937)
(0.424293 0 -0.0826199)
(0.409107 1.57352e-23 -0.0796582)
(0.394455 1.43414e-22 -0.0768015)
(0.380304 1.59061e-21 -0.0740429)
(0.366623 -3.20207e-21 -0.0713765)
(0.35338 0 -0.0687963)
(0.340552 0 -0.0662974)
(0.328109 -7.18527e-21 -0.0638743)
(0.316031 -1.65461e-20 -0.0615229)
(0.304293 -1.8508e-20 -0.0592382)
(0.292878 1.92231e-23 -0.057017)
(0.281761 -2.18302e-20 -0.0548545)
(0.270931 0 -0.0527482)
(0.260362 2.44958e-20 -0.0506934)
(0.250047 2.55888e-20 -0.0486887)
(0.239962 2.65273e-20 -0.0467289)
(0.230103 0 -0.0448137)
(0.220442 0 -0.0429376)
(0.210985 0 -0.0411015)
(0.201699 -5.8272e-20 -0.0392991)
(0.192596 0 -0.0375328)
(0.183639 0 -0.0357953)
(0.17485 1.20084e-19 -0.0340907)
(0.166184 0 -0.0324104)
(0.157674 0 -0.0307607)
(0.149265 0 -0.0291311)
(0.141005 -1.20515e-19 -0.0275305)
(0.132827 1.19997e-19 -0.0259462)
(0.124795 1.1927e-19 -0.0243905)
(0.116828 2.33386e-23 -0.0228475)
(0.109009 -1.1723e-19 -0.0213335)
(0.101239 0 -0.0198292)
(0.0936281 1.14512e-19 -0.0183557)
(0.0860513 0 -0.0168891)
(0.0786504 0 -0.0154565)
(0.0712732 0 -0.0140287)
(0.0640955 2.88971e-23 -0.0126394)
(0.0569342 2.10831e-19 -0.0112533)
(0.0500022 2.06579e-19 -0.00991148)
(0.0430829 -2.02117e-19 -0.00857222)
(0.0364284 -1.97561e-19 -0.00728388)
(0.0297866 0 -0.00599808)
(0.0234483 0 -0.00477066)
(0.0171236 3.66311e-19 -0.00354595)
(0.0111442 -7.12704e-19 -0.00238765)
(0.00517552 6.92448e-19 -0.00123151)
(-0.000400966 3.36068e-19 -0.000150733)
(-0.00598633 0 0.000931065)
(-0.0111194 -6.3095e-19 0.00192647)
(-0.0163194 3.05123e-19 0.002934)
(-0.0209779 -2.94837e-19 0.00383758)
(-0.025829 5.69065e-19 0.00477726)
(-0.0300026 0 0.00558725)
(-0.0345601 0 0.00646903)
(-0.0383643 0 0.00720784)
(-0.0425457 0 0.00801499)
(-0.0465764 0 0.00879681)
(-0.0498246 0 0.00942352)
(-0.05407 -4.32185e-19 0.0102436)
(-0.0588727 -8.27191e-19 0.011164)
(-0.0629764 -7.93735e-19 0.0119216)
(-0.0547957 0 0.01045)
(-0.0978764 0 0.0185984)
(-0.0637718 0 0.0117253)
(-0.032396 -6.65809e-19 0.00667736)
(-0.165799 -1.21323e-18 0.0315525)
(-0.0769129 6.34167e-19 0.0136669)
(0.0174405 0 -0.0022087)
(-0.293728 -9.99018e-19 0.0565083)
(-0.302936 0 0.0557709)
(0.040424 -1.15579e-18 -0.00887258)
(0.0216693 9.90639e-19 -0.00230978)
(-0.353442 -8.85367e-19 0.0677756)
(-0.361241 -9.52593e-19 0.0676235)
(-0.18165 9.8377e-19 0.032923)
(0.00684308 -1.38443e-22 -0.00272567)
(0.12909 9.41738e-19 -0.0253863)
(0.175578 0 -0.0336806)
(29.1132 -1.23114e-21 4.01453)
(25.0791 0 1.85167)
(20.2267 -1.91283e-20 -0.216661)
(16.0684 0 -1.21335)
(13.1144 -1.73238e-20 -1.50832)
(11.0753 -3.04298e-20 -1.51928)
(9.60527 -1.40902e-20 -1.44177)
(8.49479 0 -1.34434)
(7.62302 3.56074e-22 -1.24912)
(6.91729 -2.19294e-20 -1.16217)
(6.33204 2.01414e-20 -1.08419)
(5.8373 1.84969e-20 -1.01446)
(5.4125 -1.69846e-20 -0.951962)
(5.04299 1.55928e-20 -0.895738)
(4.71805 2.86782e-20 -0.844925)
(4.42961 0 -0.798791)
(4.1715 -6.50668e-23 -0.756718)
(3.93887 2.20586e-20 -0.718186)
(3.7279 2.02314e-20 -0.682757)
(3.53552 0 -0.65006)
(3.35923 0 -0.61978)
(3.19695 1.54095e-20 -0.59165)
(3.04697 0 -0.565439)
(2.90786 1.27622e-20 -0.54095)
(2.77841 -2.31585e-20 -0.518009)
(2.65756 0 -0.496469)
(2.54445 1.89535e-20 -0.476198)
(2.43829 0 -0.457082)
(2.33843 -1.5334e-20 -0.43902)
(2.24428 -2.74481e-20 -0.421921)
(2.15533 -2.446e-20 -0.405707)
(2.07112 -1.08419e-20 -0.390307)
(1.99127 9.56001e-21 -0.375656)
(1.91541 3.35115e-20 -0.361698)
(1.84323 2.9121e-20 -0.348381)
(1.77445 0 -0.335659)
(1.7088 0 -0.323488)
(1.64606 -1.70092e-23 -0.311832)
(1.58601 0 -0.300654)
(1.52847 -5.8438e-21 -0.289922)
(1.47326 0 -0.279608)
(1.42023 -6.48024e-21 -0.269684)
(1.36922 0 -0.260125)
(1.32011 -2.0856e-21 -0.250907)
(1.27278 0 -0.242011)
(1.2271 -1.60165e-21 -0.233416)
(1.18298 0 -0.225103)
(1.14032 0 -0.217056)
(1.09902 5.9827e-21 -0.209258)
(1.059 0 -0.201695)
(1.02019 0 -0.194353)
(0.982505 0 -0.187217)
(0.945887 2.03159e-20 -0.180278)
(0.910258 4.37412e-20 -0.173521)
(0.875575 0 -0.166938)
(0.841758 0 -0.160515)
(0.808782 -2.55642e-20 -0.154248)
(0.776564 -2.6526e-20 -0.148121)
(0.745094 0 -0.142133)
(0.714284 0 -0.136267)
(0.684142 0 -0.130526)
(0.654571 0 -0.12489)
(0.625601 -5.87684e-20 -0.119367)
(0.59712 5.93109e-20 -0.113933)
(0.569186 -1.194e-19 -0.108604)
(0.541665 0 -0.103349)
(0.514651 0 -0.0981912)
(0.487979 0 -0.0930955)
(0.461788 4.69456e-23 -0.0880916)
(0.435874 -1.1885e-19 -0.0831377)
(0.41043 -1.18022e-19 -0.0782742)
(0.385204 2.33944e-19 -0.0734493)
(0.360454 3.57049e-23 -0.0687167)
(0.33587 -1.14374e-19 -0.0640124)
(0.311788 -1.12883e-19 -0.0594061)
(0.287826 0 -0.0548194)
(0.264413 0 -0.0503405)
(0.241086 0 -0.0458742)
(0.218379 2.10987e-19 -0.0415299)
(0.195732 0 -0.0371929)
(0.173794 0 -0.032996)
(0.151903 1.97815e-19 -0.0288034)
(0.130831 1.9315e-19 -0.0247724)
(0.109802 0 -0.0207448)
(0.0897127 0 -0.0169025)
(0.0696686 0 -0.0130637)
(0.0506947 6.93696e-19 -0.00943534)
(0.0317585 -4.57918e-23 -0.00580924)
(0.0140381 3.26359e-19 -0.00242111)
(-0.00369804 -3.16011e-19 0.000975598)
(-0.020037 6.1145e-19 0.00409828)
(-0.0365539 2.95344e-19 0.00726202)
(-0.0514114 5.70227e-19 0.0101006)
(-0.0668009 0 0.0130508)
(-0.0801409 0 0.0155967)
(-0.0945573 0 0.0183669)
(-0.106713 0 0.0206802)
(-0.119917 4.70064e-19 0.0232327)
(-0.132615 0 0.0256397)
(-0.14289 0 0.0276306)
(-0.156459 -4.14386e-19 0.0302396)
(-0.170828 3.962e-19 0.0330281)
(-0.182842 1.51917e-18 0.0351183)
(-0.163817 -7.2704e-19 0.0319928)
(-0.284308 0 0.0550357)
(-0.179872 0 0.0329557)
(-0.113617 0 0.0238197)
(-0.482439 5.77799e-19 0.0939343)
(-0.207298 -6.0354e-19 0.0357364)
(0.00632268 0 0.00284462)
(-0.874102 1.89827e-18 0.174)
(-0.81596 1.04639e-18 0.150335)
(0.129584 2.19259e-18 -0.0312276)
(-0.000395515 0 0.00732405)
(-1.0445 0 0.207279)
(-0.991724 -9.0082e-19 0.187498)
(-0.471083 0 0.0840979)
(0.076023 -9.23881e-19 -0.0199425)
(0.411527 -8.89424e-19 -0.0820656)
(0.538022 0 -0.103943)
(31.8566 0 3.88313)
(31.0461 0 2.8085)
(28.5225 -1.29634e-20 1.01658)
(25.1869 0 -0.38743)
(21.9423 0 -1.22963)
(19.1756 1.51257e-20 -1.65349)
(16.9224 1.33435e-20 -1.82141)
(15.1012 0 -1.85292)
(13.6166 4.20587e-22 -1.81924)
(12.3887 2.07751e-20 -1.75683)
(11.3572 -3.79542e-20 -1.68314)
(10.4779 -1.75257e-20 -1.60652)
(9.7186 1.14737e-22 -1.53095)
(9.05563 -1.47753e-20 -1.45829)
(8.47106 -1.35609e-20 -1.38931)
(7.95122 1.23911e-20 -1.32428)
(7.48546 -2.2814e-20 -1.26319)
(7.06537 -2.09037e-20 -1.20587)
(6.68423 0 -1.15211)
(6.33661 0 -1.10167)
(6.01805 1.59647e-20 -1.05429)
(5.72485 1.45699e-20 -1.00974)
(5.45396 0 -0.967804)
(5.20279 0 -0.92826)
(4.96914 2.19441e-20 -0.890924)
(4.75114 0 -0.855621)
(4.54719 -3.59119e-20 -0.822193)
(4.35589 1.61787e-20 -0.790496)
(4.17604 0 -0.760398)
(4.00658 1.30051e-20 -0.731782)
(3.84657 1.15896e-20 -0.704538)
(3.69521 0 -0.678569)
(3.55176 -9.06889e-21 -0.653786)
(3.41557 -1.58794e-20 -0.630105)
(3.28608 1.17872e-23 -0.607453)
(3.16275 0 -0.58576)
(3.04513 0 -0.564964)
(2.93279 8.45782e-21 -0.545006)
(2.82536 0 -0.525834)
(2.72248 0 -0.507398)
(2.62384 0 -0.489653)
(2.52914 0 -0.472556)
(2.43814 0 -0.456068)
(2.35058 0 -0.440152)
(2.26623 0 -0.424776)
(2.1849 1.47354e-21 -0.409906)
(2.1064 -2.99665e-21 -0.395515)
(2.03053 0 -0.381571)
(1.95715 -5.6602e-21 -0.368053)
(1.88609 0 -0.354933)
(1.81723 0 -0.34219)
(1.7504 1.74904e-20 -0.3298)
(1.68551 0 -0.317747)
(1.62242 -2.06656e-20 -0.306005)
(1.56104 2.19602e-20 -0.294565)
(1.50124 0 -0.283398)
(1.44296 2.41637e-20 -0.272501)
(1.38606 0 -0.261845)
(1.33051 0 -0.25143)
(1.27617 0 -0.241225)
(1.22303 5.39274e-20 -0.231238)
(1.17093 5.47939e-20 -0.221432)
(1.11992 2.81065e-23 -0.211823)
(1.06981 -1.11986e-19 -0.202369)
(1.02067 2.46637e-23 -0.193096)
(0.972296 0 -0.183954)
(0.92483 0 -0.17498)
(0.877991 -1.13015e-19 -0.166115)
(0.832011 3.77849e-23 -0.157409)
(0.786542 0 -0.148791)
(0.741907 0 -0.14033)
(0.697676 -1.10289e-19 -0.131935)
(0.654284 2.87155e-23 -0.123702)
(0.611201 2.67779e-23 -0.115517)
(0.568996 0 -0.107504)
(0.527018 0 -0.0995221)
(0.485995 -2.06087e-19 -0.0917288)
(0.445134 2.02444e-19 -0.0839549)
(0.405345 0 -0.0763937)
(0.36567 0 -0.0688421)
(0.327219 0 -0.0615345)
(0.288854 0 -0.0542304)
(0.2519 0 -0.0472077)
(0.215024 0 -0.0401863)
(0.179766 0 -0.0334875)
(0.144588 0 -0.0267896)
(0.111256 -6.52167e-19 -0.0204583)
(0.077992 -3.16427e-19 -0.0141259)
(0.0468258 -3.06735e-19 -0.0082075)
(0.0156446 2.96949e-19 -0.0022722)
(-0.0131301 -5.74387e-19 0.0031928)
(-0.0421766 -2.77415e-19 0.00872254)
(-0.0683815 -2.67736e-19 0.0136953)
(-0.0954228 0 0.0188512)
(-0.118987 0 0.0233166)
(-0.144263 0 0.028156)
(-0.165723 0 0.0322032)
(-0.188843 -4.40998e-19 0.036682)
(-0.211002 0 0.0408209)
(-0.229043 0 0.0443339)
(-0.252926 3.8854e-19 0.048946)
(-0.276962 0 0.0535921)
(-0.297053 -7.11918e-19 0.0567881)
(-0.272022 6.81319e-19 0.0539897)
(-0.461966 0 0.0892904)
(-0.286641 0 0.0502094)
(-0.210026 0 0.0469528)
(-0.784263 5.40926e-19 0.15315)
(-0.319452 0 0.0490266)
(-0.0485098 -5.18227e-19 0.0237139)
(-1.44287 -9.71463e-23 0.29434)
(-1.24349 -9.7931e-19 0.21538)
(0.219298 -2.05157e-18 -0.059775)
(-0.0813278 0 0.0401125)
(-1.71313 7.8427e-19 0.34775)
(-1.5282 8.42609e-19 0.27969)
(-0.688249 8.69388e-19 0.109952)
(0.202355 0 -0.0564756)
(0.72202 8.31642e-19 -0.147651)
(0.918131 0 -0.177895)
(32.3803 0 2.94026)
(32.9475 0 2.7561)
(32.3968 1.22548e-20 1.71382)
(30.7578 0 0.514514)
(28.5097 -1.23085e-20 -0.489134)
(26.0985 2.50428e-20 -1.21103)
(23.7837 0 -1.67345)
(21.6813 -2.18752e-20 -1.93725)
(19.8247 2.09801e-20 -2.06631)
(18.2046 1.89809e-20 -2.11057)
(16.7934 1.78451e-20 -2.10381)
(15.5601 -1.62265e-20 -2.06726)
(14.4764 1.51116e-20 -2.01386)
(13.5178 -2.75619e-20 -1.95143)
(12.6646 0 -1.88469)
(11.9003 -2.33752e-20 -1.81651)
(11.2117 0 -1.74863)
(10.588 0 -1.6821)
(10.0203 0 -1.61754)
(9.50111 1.64787e-20 -1.55528)
(9.02438 -3.44371e-23 -1.49549)
(8.58494 -2.62377e-23 -1.43822)
(8.17843 1.25379e-20 -1.38346)
(7.80117 0 -1.33115)
(7.45 0 -1.28119)
(7.1222 0 -1.23349)
(6.81542 3.39493e-20 -1.18793)
(6.52763 -6.28108e-24 -1.14441)
(6.25704 0 -1.10281)
(6.00209 0 -1.06303)
(5.7614 0 -1.02496)
(5.53374 0 -0.988499)
(5.31804 1.71538e-20 -0.953559)
(5.11333 0 -0.920051)
(4.91874 -1.3058e-20 -0.887891)
(4.73349 0 -0.857)
(4.55688 0 -0.827306)
(4.38827 -8.01833e-21 -0.798739)
(4.2271 0 -0.771236)
(4.07283 0 -0.744735)
(3.925 4.05171e-21 -0.719181)
(3.78316 -5.86781e-21 -0.694519)
(3.64692 0 -0.670702)
(3.5159 -1.93021e-21 -0.647679)
(3.38977 0 -0.62541)
(3.26821 -2.76493e-21 -0.60385)
(3.15094 1.8568e-23 -0.582964)
(3.03769 0 -0.562709)
(2.92821 0 -0.543057)
(2.82225 6.39243e-21 -0.523969)
(2.71963 1.47332e-20 -0.50542)
(2.62011 -3.30019e-20 -0.487373)
(2.52354 0 -0.469808)
(2.42969 -1.94605e-20 -0.45269)
(2.33845 -2.07296e-20 -0.436004)
(2.24961 -2.18025e-20 -0.419713)
(2.16308 -2.27633e-20 -0.40381)
(2.07865 0 -0.388255)
(1.99628 0 -0.373048)
(1.91574 -4.9831e-20 -0.358147)
(1.83703 -1.01704e-19 -0.34356)
(1.75992 -5.168e-20 -0.329237)
(1.68444 3.01715e-23 -0.315201)
(1.61033 5.27844e-20 -0.301391)
(1.53772 5.31031e-20 -0.287844)
(1.46626 0 -0.274488)
(1.39617 0 -0.261377)
(1.32705 1.06503e-19 -0.248424)
(1.25921 2.12226e-19 -0.235705)
(1.19217 0 -0.223112)
(1.12636 1.04751e-19 -0.21075)
(1.06119 1.03808e-19 -0.198485)
(0.997255 1.0274e-19 -0.186454)
(0.933801 2.0294e-19 -0.174494)
(0.87164 0 -0.162783)
(0.809833 0 -0.151118)
(0.749424 1.93932e-19 -0.139726)
(0.689268 -3.80899e-19 -0.128362)
(0.630672 -1.86803e-19 -0.117306)
(0.572254 0 -0.106263)
(0.51561 0 -0.0955732)
(0.459099 0 -0.0848866)
(0.40463 0 -0.0746075)
(0.350277 0 -0.0643276)
(0.298268 0 -0.0545154)
(0.246374 -3.15247e-19 -0.0447015)
(0.197157 4.39957e-23 -0.0354196)
(0.148039 2.97108e-19 -0.0261332)
(0.101967 0 -0.017448)
(0.0558842 2.78725e-19 -0.00873918)
(0.0132921 2.69568e-19 -0.000707522)
(-0.029653 0 0.00740994)
(-0.0684956 -2.51178e-19 0.0147262)
(-0.108449 -4.84066e-19 0.0222915)
(-0.143425 0 0.0288704)
(-0.180695 0 0.0359652)
(-0.212521 0 0.041917)
(-0.246568 -4.13379e-19 0.0485017)
(-0.279056 0 0.0544954)
(-0.305734 0 0.0596969)
(-0.340937 3.64031e-19 0.0665055)
(-0.374745 -3.47907e-19 0.0729982)
(-0.403405 0 0.0771484)
(-0.376822 0 0.0761639)
(-0.627607 0 0.121567)
(-0.383486 0 0.0649001)
(-0.318846 0 0.0745388)
(-1.06527 -9.87155e-23 0.209042)
(-0.415428 0 0.0569458)
(-0.144364 4.8494e-19 0.056777)
(-1.98496 -8.31128e-19 0.413873)
(-1.58165 0 0.258284)
(0.301047 2.22772e-23 -0.090246)
(-0.213992 0 0.0896442)
(-2.33913 -1.39294e-22 0.485033)
(-1.95411 0 0.348203)
(-0.826951 -8.1285e-19 0.11577)
(0.388589 0 -0.108643)
(1.0609 7.77326e-19 -0.220862)
(1.3169 0 -0.25599)
(32.4846 0 2.0875)
(33.2429 0 2.21449)
(33.5906 0 1.74095)
(33.2285 0 0.948455)
(32.2089 1.16183e-20 0.108036)
(30.7387 -8.99446e-22 -0.63995)
(29.0233 0 -1.24013)
(27.221 2.06472e-20 -1.68334)
(25.4413 0 -1.98671)
(23.7502 -3.53311e-20 -2.17842)
(22.1801 0 -2.28701)
(20.741 1.5319e-20 -2.33643)
(19.4304 0 -2.34496)
(18.2397 2.60228e-20 -2.32581)
(17.1578 -1.18594e-20 -2.28829)
(16.1731 2.19248e-20 -2.23882)
(15.2747 -2.00826e-20 -2.18186)
(14.4528 -1.84447e-20 -2.12045)
(13.6986 0 -2.0567)
(13.0044 -1.55604e-20 -1.99207)
(12.3636 -1.42264e-20 -1.92754)
(11.7703 -2.59404e-20 -1.8638)
(11.2196 -1.18391e-20 -1.80131)
(10.7069 0 -1.74036)
(10.2286 0 -1.68114)
(9.78117 0 -1.62376)
(9.36178 -1.60228e-20 -1.56827)
(8.96781 -1.44409e-20 -1.51468)
(8.59699 0 -1.46297)
(8.24729 0 -1.4131)
(7.91693 1.03486e-20 -1.36504)
(7.60429 0 -1.31871)
(7.30796 1.17885e-24 -1.27407)
(7.02664 -1.41962e-20 -1.23103)
(6.75917 1.23419e-20 -1.18954)
(6.50453 0 -1.14952)
(6.26176 0 -1.11091)
(6.03002 7.56786e-21 -1.07365)
(5.80851 0 -1.03767)
(5.59653 0 -1.0029)
(5.39344 -3.82345e-21 -0.969301)
(5.19863 5.53689e-21 -0.936801)
(5.01157 0 -0.905352)
(4.83174 1.82112e-21 -0.874898)
(4.65869 0 -0.845393)
(4.49197 1.29501e-21 -0.816787)
(4.33121 2.65283e-21 -0.789037)
(4.17602 0 -0.762095)
(4.02607 4.99555e-21 -0.735926)
(3.88102 -6.02842e-21 -0.710484)
(3.7406 -2.77568e-20 -0.685739)
(3.60449 1.5545e-20 -0.661644)
(3.47249 -1.6999e-20 -0.638178)
(3.34428 2.5037e-23 -0.615294)
(3.21969 0 -0.592976)
(3.09845 2.05498e-20 -0.571175)
(2.98043 2.14532e-20 -0.549885)
(2.86534 -2.22161e-20 -0.529053)
(2.75311 2.28884e-20 -0.508681)
(2.64344 4.69479e-20 -0.488712)
(2.53633 4.78886e-20 -0.469161)
(2.43143 -4.86173e-20 -0.449959)
(2.32882 4.92427e-20 -0.431138)
(2.22812 0 -0.412618)
(2.1295 0 -0.394448)
(2.03249 5.01134e-20 -0.376533)
(1.93739 0 -0.358945)
(1.84364 0 -0.341567)
(1.75167 -9.9844e-20 -0.324502)
(1.66081 0 -0.307606)
(1.57165 -9.85552e-20 -0.291017)
(1.48338 -1.95275e-19 -0.274558)
(1.39681 0 -0.258411)
(1.31091 -9.54136e-20 -0.242358)
(1.22677 0 -0.226636)
(1.14313 0 -0.210977)
(1.06137 -1.82212e-19 -0.19568)
(0.979964 1.7898e-19 -0.180418)
(0.900648 3.9655e-23 -0.165567)
(0.821583 0 -0.150729)
(0.744884 0 -0.136362)
(0.668367 0 -0.121995)
(0.594568 -1.60354e-19 -0.108172)
(0.520922 1.56284e-19 -0.0943413)
(0.450397 0 -0.0811351)
(0.38002 5.91805e-19 -0.0679204)
(0.313212 2.8743e-19 -0.0554167)
(0.246532 -5.57579e-19 -0.0429008)
(0.183918 -2.70145e-19 -0.0311886)
(0.121298 -5.22916e-19 -0.0194404)
(0.0633378 0 -0.00859912)
(0.00495118 0 0.0023561)
(-0.0479769 2.3552e-19 0.0122481)
(-0.102268 4.53819e-19 0.0224529)
(-0.149985 -4.3692e-19 0.0313566)
(-0.200536 0 0.0409212)
(-0.24391 0 0.0489573)
(-0.290032 3.87311e-19 0.0578626)
(-0.333797 3.71572e-19 0.0658213)
(-0.370129 0 0.0729217)
(-0.417657 -3.40924e-19 0.0821189)
(-0.461396 3.25776e-19 0.0904404)
(-0.499411 0 0.095455)
(-0.475083 0 0.0979093)
(-0.778051 0 0.150671)
(-0.469904 0 0.076488)
(-0.435765 0 0.106377)
(-1.31987 -4.73642e-19 0.259565)
(-0.498123 0 0.0592694)
(-0.274431 0 0.102959)
(-2.4852 0 0.528713)
(-1.83203 8.55061e-19 0.274242)
(0.367267 8.97198e-19 -0.120327)
(-0.385752 0 0.156394)
(-2.90157 -6.85548e-19 0.613696)
(-2.25698 0 0.384725)
(-0.883974 -7.59212e-19 0.0970483)
(0.635695 0 -0.178942)
(1.4285 -7.2644e-19 -0.302113)
(1.73584 0 -0.338319)
(32.5582 -4.9827e-21 1.47306)
(33.1419 -6.18557e-21 1.61401)
(33.669 7.34552e-21 1.42433)
(33.8955 8.27892e-21 0.96467)
(33.7047 0 0.373982)
(33.1084 -9.92554e-21 -0.24081)
(32.1798 0 -0.813933)
(31.0098 1.74535e-20 -1.3084)
(29.6868 1.66938e-20 -1.7088)
(28.2871 3.22089e-20 -2.01555)
(26.8698 -1.48263e-20 -2.23834)
(25.4772 1.38411e-20 -2.39062)
(24.1363 0 -2.48631)
(22.8627 0 -2.53798)
(21.6636 1.11808e-20 -2.55626)
(20.5409 -1.14629e-22 -2.54966)
(19.493 1.76246e-22 -2.5248)
(18.5163 1.36103e-22 -2.48677)
(17.6064 0 -2.43939)
(16.7585 0 -2.38554)
(15.9676 0 -2.32736)
(15.2291 2.43746e-20 -2.26647)
(14.5385 1.10979e-20 -2.20406)
(13.8918 0 -2.14103)
(13.2853 0 -2.07803)
(12.7155 1.66569e-20 -2.01555)
(12.1794 0 -1.95393)
(11.6742 0 -1.89344)
(11.1975 0 -1.83424)
(10.7469 0 -1.77646)
(10.3203 -6.62762e-24 -1.72018)
(9.91602 0 -1.66543)
(9.53226 -1.80971e-24 -1.61223)
(9.16752 1.3382e-20 -1.56058)
(8.82042 2.27895e-24 -1.51047)
(8.48969 0 -1.46187)
(8.17418 0 -1.41475)
(7.87283 0 -1.36905)
(7.58469 0 -1.32475)
(7.30886 0 -1.28179)
(7.04453 0 -1.24013)
(6.79096 0 -1.19972)
(6.54746 -3.42708e-21 -1.16051)
(6.31338 -1.75148e-21 -1.12245)
(6.08813 0 -1.08549)
(5.87117 1.18608e-21 -1.04959)
(5.66199 0 -1.0147)
(5.4601 0 -0.980773)
(5.26509 -9.39532e-21 -0.94777)
(5.0765 0 -0.91564)
(4.89399 1.30563e-20 -0.884353)
(4.71715 0 -0.853857)
(4.5457 3.19873e-20 -0.824127)
(4.37925 2.42446e-23 -0.795109)
(4.21758 0 -0.766787)
(4.06032 0 -0.739102)
(3.9073 0 -0.712049)
(3.75815 4.18e-20 -0.685563)
(3.61277 -4.30626e-20 -0.659651)
(3.47078 -4.41108e-20 -0.634239)
(3.33216 -4.49955e-20 -0.60935)
(3.19647 9.14505e-20 -0.584897)
(3.06381 4.62675e-20 -0.560923)
(2.93368 0 -0.537326)
(2.80628 0 -0.514169)
(2.68103 -2.4075e-23 -0.491333)
(2.55829 0 -0.46891)
(2.43735 0 -0.446751)
(2.31874 -9.37863e-20 -0.424988)
(2.20161 0 -0.403437)
(2.08671 0 -0.382275)
(1.97298 1.83448e-19 -0.361275)
(1.86146 -9.07161e-20 -0.340672)
(1.75084 0 -0.320185)
(1.64248 0 -0.300117)
(1.5348 0 -0.280124)
(1.42952 1.71125e-19 -0.260591)
(1.32471 0 -0.241099)
(1.22257 3.29528e-19 -0.222125)
(1.12075 -1.61341e-19 -0.203164)
(1.02194 0 -0.184798)
(0.923351 0 -0.166426)
(0.828209 1.50474e-19 -0.148742)
(0.733251 -2.7048e-23 -0.131041)
(0.642248 1.42716e-19 -0.114132)
(0.551416 -2.77532e-19 -0.097203)
(0.465115 2.69486e-19 -0.0811776)
(0.378958 2.6141e-19 -0.0651275)
(0.297973 2.53286e-19 -0.0501001)
(0.216976 3.29233e-23 -0.0350204)
(0.14191 0 -0.0210943)
(0.0663403 -2.2873e-19 -0.00702635)
(-0.00229767 0 0.00570001)
(-0.0725423 0 0.0188006)
(-0.134488 4.09313e-19 0.0302644)
(-0.199785 0 0.042536)
(-0.256019 0 0.0528578)
(-0.315527 0 0.0643138)
(-0.371605 -3.47907e-19 0.0743682)
(-0.418778 0 0.0836019)
(-0.479627 -3.19082e-19 0.0953535)
(-0.533552 0 0.105502)
(-0.581952 0 0.111462)
(-0.563036 0 0.118571)
(-0.909729 0 0.176152)
(-0.544777 0 0.0851805)
(-0.555346 -4.87534e-19 0.141437)
(-1.54239 -4.42782e-19 0.303707)
(-0.569838 4.62276e-19 0.0572171)
(-0.429316 0 0.160227)
(-2.92867 0 0.634988)
(-1.99835 -1.59816e-18 0.265723)
(0.412883 0 -0.148077)
(-0.580984 7.19747e-19 0.2367)
(-3.37893 0 0.728316)
(-2.42554 6.8677e-19 0.388903)
(-0.856306 7.09473e-19 0.0545735)
(0.944586 0 -0.266817)
(1.8257 -6.78689e-19 -0.391315)
(2.17693 0 -0.425264)
(32.614 4.69235e-21 1.02073)
(33.0253 1.1407e-20 1.10894)
(33.4717 -6.91909e-21 1.02708)
(33.8374 -7.7904e-22 0.76484)
(34.0116 7.50112e-21 0.375622)
(33.9384 0 -0.0786633)
(33.6099 0 -0.548922)
(33.0464 -1.6435e-20 -0.999437)
(32.283 -3.05374e-20 -1.4066)
(31.3622 -7.07813e-22 -1.75739)
(30.3274 1.39597e-20 -2.0473)
(29.219 -1.3032e-20 -2.27767)
(28.0721 1.17909e-20 -2.45332)
(26.9146 0 -2.58083)
(25.7682 0 -2.66735)
(24.6483 -9.58554e-21 -2.71986)
(23.5653 3.50927e-20 -2.74476)
(22.5258 3.23128e-20 -2.74759)
(21.5331 0 -2.73306)
(20.5887 0 -2.70504)
(19.6924 0 -2.6667)
(18.843 -6.74977e-23 -2.62056)
(18.0388 -2.08473e-20 -2.56866)
(17.2777 9.47572e-21 -2.51259)
(16.5573 1.72337e-20 -2.45364)
(15.8752 -3.13183e-20 -2.3928)
(15.2292 1.41453e-20 -2.33085)
(14.6168 1.27605e-20 -2.26841)
(14.036 1.14734e-20 -2.20595)
(13.4847 0 -2.14386)
(12.9608 -9.17932e-21 -2.0824)
(12.4626 8.13691e-21 -2.02181)
(11.9884 -7.18696e-21 -1.96223)
(11.5366 -1.25917e-20 -1.90379)
(11.1057 -2.19058e-20 -1.84656)
(10.6943 0 -1.79062)
(10.3013 0 -1.73598)
(9.92538 -6.73274e-21 -1.68267)
(9.56552 0 -1.63069)
(9.22069 4.43167e-21 -1.58004)
(8.88996 3.41488e-21 -1.53069)
(8.57247 0 -1.48262)
(8.26741 6.46547e-21 -1.43581)
(7.97401 1.64825e-21 -1.39021)
(7.69159 0 -1.34581)
(7.41948 -1.11606e-21 -1.30256)
(7.15708 -2.30545e-21 -1.26043)
(6.9038 0 -1.21936)
(6.65913 8.81045e-21 -1.17933)
(6.42253 -5.30003e-21 -1.1403)
(6.19357 -1.22287e-20 -1.10222)
(5.97176 0 -1.06505)
(5.75674 -2.44778e-23 -1.02876)
(5.54803 3.23765e-20 -0.993305)
(5.34537 0 -0.958659)
(5.14828 0 -0.924759)
(4.95657 -1.89289e-20 -0.891604)
(4.76976 -1.96406e-20 -0.859117)
(4.58775 4.0448e-20 -0.827311)
(4.41003 4.14652e-20 -0.7961)
(4.23661 4.22932e-20 -0.765513)
(4.06691 -4.29607e-20 -0.735447)
(3.90107 -8.69332e-20 -0.705956)
(3.73845 0 -0.676917)
(3.5793 0 -0.648411)
(3.4229 -8.84847e-20 -0.620288)
(3.26968 0 -0.592667)
(3.11876 0 -0.565363)
(2.9708 8.80855e-20 -0.538541)
(2.82473 0 -0.511973)
(2.68147 -8.68828e-20 -0.485879)
(2.53972 -3.22073e-23 -0.459979)
(2.40074 8.51652e-20 -0.434562)
(2.26291 0 -0.409284)
(2.1279 0 -0.384516)
(1.99375 0 -0.359835)
(1.86257 1.60492e-19 -0.335715)
(1.73201 0 -0.311639)
(1.60471 -1.54556e-19 -0.288195)
(1.47782 3.02653e-19 -0.264759)
(1.35462 0 -0.242049)
(1.23169 0 -0.219323)
(1.11298 0 -0.197438)
(0.99447 -2.68056e-23 -0.175521)
(0.880813 -1.33792e-19 -0.154576)
(0.76733 -2.60058e-19 -0.133592)
(0.659417 -2.52574e-19 -0.11372)
(0.551643 2.44899e-19 -0.0938038)
(0.450244 0 -0.075148)
(0.348804 2.29594e-19 -0.0564156)
(0.254684 0 -0.0391073)
(0.159966 2.14243e-19 -0.0216206)
(0.0737947 0 -0.0057829)
(-0.0142365 0 0.0104987)
(-0.0920789 0 0.0247766)
(-0.173791 -3.68265e-19 0.0400198)
(-0.244347 -3.53854e-19 0.0528396)
(-0.318737 0 0.0671066)
(-0.388268 3.25543e-19 0.0793825)
(-0.447664 -3.11733e-19 0.0910242)
(-0.522804 2.98557e-19 0.105475)
(-0.587333 -2.85197e-19 0.117472)
(-0.64736 0 0.12442)
(-0.636255 0 0.137352)
(-1.01887 0 0.197164)
(-0.606293 0 0.0908128)
(-0.670981 4.55887e-19 0.178502)
(-1.72753 1.2591e-22 0.340156)
(-0.631914 -8.64306e-19 0.051488)
(-0.596825 0 0.226482)
(-3.3014 0 0.728953)
(-2.08788 7.46565e-19 0.233497)
(0.436732 0 -0.172288)
(-0.781009 -6.72604e-19 0.327067)
(-3.75025 0 0.823221)
(-2.45303 -1.2829e-18 0.357504)
(-0.742121 0 -0.0124917)
(1.31555 0 -0.372589)
(2.25411 6.34002e-19 -0.48857)
(2.64281 0 -0.517244)
(32.6396 0 0.667342)
(32.9413 -5.25034e-21 0.711633)
(33.2785 0 0.663099)
(33.6092 -6.60386e-21 0.500975)
(33.8706 -1.34675e-20 0.240074)
(34.0117 0 -0.0878948)
(34.0041 6.72185e-21 -0.451525)
(33.8365 0 -0.824727)
(33.5094 8.99003e-22 -1.18731)
(33.0324 -2.59023e-20 -1.52481)
(32.4214 0 -1.82792)
(31.6967 0 -2.09174)
(30.8804 -1.109e-20 -2.31468)
(29.9949 0 -2.49745)
(29.0611 0 -2.64236)
(28.0979 0 -2.75265)
(27.1215 -1.63937e-20 -2.8321)
(26.1451 -1.51106e-20 -2.88465)
(25.1793 -1.37191e-20 -2.91418)
(24.2322 0 -2.92431)
(23.3094 0 -2.91831)
(22.4151 -1.0708e-20 -2.89909)
(21.5517 9.7789e-21 -2.86915)
(20.7208 -8.91218e-21 -2.83063)
(19.9228 -1.62087e-20 -2.78533)
(19.1578 2.93385e-20 -2.73477)
(18.4252 -5.45868e-23 -2.68019)
(17.7241 -1.20012e-20 -2.62262)
(17.0536 -1.07905e-20 -2.56291)
(16.4124 0 -2.50176)
(15.7993 0 -2.43973)
(15.2129 -7.6522e-21 -2.37728)
(14.652 0 -2.31478)
(14.1153 1.18411e-20 -2.25253)
(13.6014 1.02983e-20 -2.19076)
(13.1092 -8.86512e-21 -2.12967)
(12.6375 0 -2.0694)
(12.1852 6.33064e-21 -2.01006)
(11.7512 5.20677e-21 -1.95174)
(11.3345 3.43302e-24 -1.89449)
(10.9341 -6.42569e-21 -1.83837)
(10.5492 0 -1.78339)
(10.1788 -3.04611e-21 -1.72958)
(9.82221 0 -1.67692)
(9.47859 0 -1.62543)
(9.14723 0 -1.57508)
(8.82747 1.34427e-23 -1.52587)
(8.51863 0 -1.47776)
(8.22015 -4.13341e-21 -1.43073)
(7.9314 9.94873e-21 -1.38476)
(7.65189 1.14915e-20 -1.33981)
(7.38105 0 -1.29584)
(7.11845 -1.40999e-20 -1.25284)
(6.86355 -3.03747e-20 -1.21074)
(6.61603 0 -1.16955)
(6.37531 0 -1.12919)
(6.14119 1.77809e-20 -1.08966)
(5.91308 1.84117e-20 -1.05089)
(5.69087 -1.89862e-20 -1.01289)
(5.47393 -3.88765e-20 -0.975568)
(5.26228 0 -0.938962)
(5.05523 0 -0.902952)
(4.85293 2.8095e-23 -0.867607)
(4.65461 -4.11285e-20 -0.832781)
(4.46058 0 -0.798576)
(4.26996 4.15185e-20 -0.764813)
(4.08325 0 -0.731638)
(3.8994 0 -0.698829)
(3.71919 0 -0.666586)
(3.54133 0 -0.634637)
(3.36692 3.40918e-23 -0.603248)
(3.19439 -3.19024e-23 -0.57208)
(3.02523 -7.98335e-20 -0.541485)
(2.85751 0 -0.511044)
(2.69321 -7.77211e-20 -0.48121)
(2.52997 0 -0.451469)
(2.37033 -1.50493e-19 -0.422394)
(2.21142 1.47699e-19 -0.39336)
(2.05645 -1.44821e-19 -0.365079)
(1.90196 -1.41838e-19 -0.336793)
(1.75188 0 -0.309374)
(1.60211 1.35449e-19 -0.281918)
(1.45738 0 -0.255469)
(1.31285 -1.28773e-19 -0.228962)
(1.17414 -1.25303e-19 -0.203621)
(1.03557 2.43623e-19 -0.178212)
(0.903694 0 -0.154141)
(0.771916 -4.58706e-19 -0.129994)
(0.647826 0 -0.107368)
(0.523626 2.14929e-19 -0.0846299)
(0.408277 0 -0.0636129)
(0.292193 2.00521e-19 -0.0423684)
(0.186446 0 -0.0231155)
(0.0785489 3.72522e-19 -0.00333715)
(-0.0170559 -3.58564e-19 0.0140376)
(-0.117088 3.44622e-19 0.0325456)
(-0.203592 3.31103e-19 0.0480942)
(-0.294583 0 0.0654606)
(-0.378815 -6.09071e-19 0.0800938)
(-0.452041 5.83176e-19 0.0944541)
(-0.542416 0 0.111715)
(-0.618187 2.66728e-19 0.125625)
(-0.691199 0 0.133705)
(-0.689626 0 0.153335)
(-1.10129 -4.59019e-19 0.213024)
(-0.651612 0 0.0931099)
(-0.775029 0 0.216088)
(-1.87023 3.86864e-19 0.367924)
(-0.683887 8.07713e-19 0.0425384)
(-0.76271 3.71317e-19 0.298821)
(-3.59078 0 0.807202)
(-2.10977 0 0.179942)
(0.442561 0 -0.192607)
(-0.96525 0 0.422627)
(-3.99589 5.58462e-19 0.892875)
(-2.33696 5.99006e-19 0.290109)
(-0.539919 0 -0.104032)
(1.74865 0 -0.496143)
(2.71627 0 -0.594108)
(3.13679 0 -0.614821)
(32.6396 4.20792e-21 0.378839)
(32.8719 0 0.395677)
(33.1278 4.92522e-21 0.355908)
(33.3928 0 0.243486)
(33.6361 6.02484e-21 0.058937)
(33.8262 0 -0.183058)
(33.9402 -6.31768e-21 -0.463373)
(33.9631 1.15918e-20 -0.764076)
(33.8858 2.36672e-20 -1.07001)
(33.7035 7.2703e-22 -1.36919)
(33.4159 0 -1.65261)
(33.0263 0 -1.91406)
(32.5414 0 -2.14968)
(31.9703 0 -2.3574)
(31.3239 0 -2.53646)
(30.6143 0 -2.68713)
(29.8539 1.47752e-20 -2.81043)
(29.0549 -1.36979e-20 -2.90794)
(28.2288 1.28905e-20 -2.98164)
(27.386 0 -3.03374)
(26.5358 0 -3.06656)
(25.6859 9.86059e-21 -3.08242)
(24.8427 9.02865e-21 -3.08356)
(24.0115 8.24699e-21 -3.07208)
(23.1962 0 -3.04991)
(22.3999 -1.37499e-20 -3.01878)
(21.6247 -2.48221e-20 -2.98022)
(20.8722 1.11768e-20 -2.93558)
(20.1431 0 -2.88603)
(19.4381 0 -2.83257)
(18.7572 0 -2.77606)
(18.1003 7.15407e-21 -2.71722)
(17.4669 0 -2.65669)
(16.8566 0 -2.59496)
(16.2687 9.64794e-21 -2.53249)
(15.7025 8.32795e-21 -2.46963)
(15.1572 0 -2.40669)
(14.6321 5.94215e-21 -2.3439)
(14.1262 -9.77979e-21 -2.28148)
(13.6389 -3.917e-21 -2.2196)
(13.1692 3.01985e-21 -2.15837)
(12.7164 0 -2.09792)
(12.2796 0 -2.03832)
(11.8582 0 -1.97963)
(11.4514 2.16507e-22 -1.92191)
(11.0584 0 -1.86518)
(10.6786 2.02224e-21 -1.80946)
(10.3113 2.97818e-21 -1.75476)
(9.95596 0 -1.70109)
(9.61185 -4.66447e-21 -1.64843)
(9.27848 0 -1.59679)
(8.9552 0 -1.54613)
(8.64159 -1.31927e-20 -1.49645)
(8.33702 2.12643e-23 -1.44771)
(8.04113 1.51402e-20 -1.39992)
(7.7533 0 -1.35299)
(7.47328 0 -1.30696)
(7.2004 -1.72792e-20 -1.26173)
(6.93454 0 -1.21734)
(6.67499 3.64806e-20 -1.17368)
(6.42174 0 -1.13081)
(6.17401 0 -1.08859)
(5.93198 7.64718e-20 -1.04711)
(5.69472 7.714e-20 -1.0062)
(5.46263 3.87801e-20 -0.965992)
(5.23463 0 -0.92627)
(5.01134 0 -0.887214)
(4.7915 3.88524e-20 -0.848563)
(4.57604 7.74071e-20 -0.810559)
(4.36341 0 -0.772877)
(4.15492 7.63992e-20 -0.735839)
(3.94869 -7.56758e-20 -0.699041)
(3.74651 7.48386e-20 -0.662905)
(3.54604 -7.38614e-20 -0.62693)
(3.34966 7.28456e-20 -0.59166)
(3.15452 0 -0.55648)
(2.96367 0 -0.522076)