/*--------------------------------*- C++ -*----------------------------------*\
| =========                 |                                                 |
| \\      /  F ield         | OpenFOAM: The Open Source CFD Toolbox           |
|  \\    /   O peration     | Version:  2412                                  |
|   \\  /    A nd           | Website:  www.openfoam.com                      |
|    \\/     M anipulation  |                                                 |
\*---------------------------------------------------------------------------*/
FoamFile
{
    version     2.0;
    format      ascii;
    arch        "LSB;label=32;scalar=64";
    class       volScalarField;
    location    "0.23";
    object      Co;
}
// * * * * * * * * * * * * * * * * * * * * * * * * * * * * * * * * * * * * * //

dimensions      [0 0 0 0 0 0 0];

internalField   nonuniform List<scalar> 
12600
(
0.416714
0.180958
0.0752657
0.0350896
0.0198174
0.0129233
0.00896118
0.00635863
0.00453602
0.00321654
0.00224101
0.00150753
0.000948554
0.000521457
0.000251949
0.000255909
0.000405358
0.000514774
0.000592459
0.000646834
0.000680636
0.00069914
0.00070486
0.000700766
0.000688957
0.000670909
0.000648718
0.000622485
0.000595678
0.000569161
0.00054109
0.000512444
0.000483612
0.000455099
0.000426807
0.000399261
0.000372223
0.000345708
0.000319899
0.00029487
0.000270824
0.000247912
0.00022637
0.000206517
0.00018867
0.000173232
0.000160688
0.000152815
0.0001501
0.00014966
0.000150174
0.000149552
0.000145306
0.000138385
0.000129929
0.000117231
0.000101235
8.17094e-05
5.44373e-05
0.000106182
0.000271155
0.000401722
0.000381538
0.000360927
0.000271119
0.000260821
0.000247212
0.000196909
0.000333855
0.000712837
0.001027
0.0011757
0.0011298
0.00106836
0.000846588
0.000531018
0.000253659
0.000103236
7.86597e-05
8.97278e-05
8.57653e-05
8.08472e-05
7.75344e-05
7.30431e-05
6.52596e-05
4.30782e-05
2.87083e-05
3.13991e-05
2.95147e-05
2.75043e-05
1.97344e-05
1.15596e-05
5.17641e-06
1.65444e-06
3.06638e-06
6.07427e-06
8.77427e-06
9.6722e-06
9.05685e-06
8.06689e-06
4.82278e-06
5.2767e-06
1.01262e-05
1.47553e-05
1.88371e-05
2.16027e-05
2.44362e-05
2.57478e-05
2.78134e-05
2.84095e-05
3.01884e-05
3.0524e-05
3.23726e-05
3.25225e-05
3.49194e-05
3.48621e-05
3.82038e-05
3.92125e-05
4.5464e-05
5.33195e-05
0.660326
0.444327
0.269657
0.160839
0.100277
0.066684
0.046728
0.0338261
0.0249209
0.0185071
0.0137545
0.0101622
0.00740683
0.00527217
0.0036078
0.00230758
0.00129188
0.000719473
0.000806879
0.00116039
0.0014174
0.00160135
0.00172436
0.00179955
0.00183619
0.00184139
0.00182317
0.00178385
0.00173407
0.00167441
0.00160738
0.00154387
0.0014754
0.0014038
0.00132951
0.00125436
0.00117865
0.00110284
0.00102771
0.000953713
0.000881729
0.000812399
0.000746518
0.000685131
0.000629284
0.000580163
0.00053929
0.000516834
0.00051067
0.000509828
0.000509322
0.0005015
0.000478487
0.000454821
0.000425613
0.000381896
0.000328781
0.000272178
0.000218249
0.000429777
0.000985766
0.00136311
0.00118583
0.0011958
0.000872459
0.000786248
0.000768939
0.0008121
0.00151183
0.00275286
0.00357471
0.00378736
0.00340356
0.00335493
0.00276279
0.00180645
0.000909207
0.000410011
0.000305868
0.000310005
0.000284306
0.000267517
0.000252987
0.000240202
0.000221986
0.000158159
0.000110216
0.000103743
8.51803e-05
8.26227e-05
5.90541e-05
3.2959e-05
1.3023e-05
2.42916e-06
7.47131e-06
1.51258e-05
2.1274e-05
2.0337e-05
1.81846e-05
1.50666e-05
1.91884e-05
3.6639e-05
5.31801e-05
6.72836e-05
7.91985e-05
8.70593e-05
9.5256e-05
9.88703e-05
0.000105271
0.000106904
0.000112805
0.000113752
0.000120131
0.000120345
0.000129159
0.00012777
0.0001411
0.000142324
0.00016647
0.000191706
0.724325
0.601422
0.447924
0.314657
0.217396
0.152109
0.10916
0.0802809
0.0601181
0.0455342
0.034689
0.0264537
0.0201023
0.0151477
0.0112497
0.00816582
0.00571435
0.00377714
0.00225972
0.00132186
0.00134603
0.00181386
0.00215595
0.00239763
0.00255749
0.00264981
0.00269107
0.00268536
0.00265241
0.00259157
0.00251282
0.00242861
0.00233755
0.00225169
0.002156
0.0020537
0.00194625
0.0018355
0.00172296
0.00160976
0.00149774
0.00138816
0.00128244
0.00118232
0.00108957
0.00100601
0.000934256
0.000903879
0.000898967
0.000899162
0.000894611
0.00087086
0.000815049
0.000783451
0.000738382
0.000666492
0.000580318
0.000504614
0.000470524
0.000916407
0.00193683
0.00251241
0.0019574
0.00211101
0.00148954
0.0012398
0.00135434
0.0018846
0.00351615
0.00557588
0.00659259
0.006445
0.00547662
0.00570192
0.00493079
0.00337613
0.00180122
0.000884638
0.000630309
0.000566237
0.000491995
0.000461112
0.000428701
0.000422242
0.000416056
0.000326224
0.000232969
0.000185543
0.000132637
0.000138126
0.000100579
5.5078e-05
2.72953e-05
1.33787e-05
1.83897e-05
2.26233e-05
2.57354e-05
1.75505e-05
1.83837e-05
3.4788e-05
6.34807e-05
9.61867e-05
0.00012357
0.000145871
0.000164203
0.000175322
0.000188166
0.000192687
0.000203536
0.000205267
0.000215933
0.000216829
0.000228787
0.000228106
0.000245739
0.000240205
0.000269008
0.000265978
0.000316266
0.000360633
0.717755
0.664063
0.564033
0.449224
0.343598
0.258041
0.193545
0.146316
0.111751
0.0861084
0.0667575
0.0519182
0.0403831
0.0313187
0.0241353
0.0184071
0.0138162
0.0101365
0.00719494
0.00482112
0.00293229
0.00185745
0.0019255
0.0024355
0.00280512
0.00305803
0.00322103
0.00330144
0.00333153
0.00331071
0.00325568
0.00317266
0.00307122
0.00296553
0.00287164
0.00276754
0.0026506
0.00252303
0.0023882
0.00224816
0.00210608
0.00196412
0.00182443
0.00168954
0.00156193
0.00144412
0.00133983
0.00131117
0.00131031
0.0013113
0.00129837
0.00124968
0.0011504
0.00112702
0.00107191
0.000975307
0.000859671
0.000779104
0.00079062
0.00151126
0.00304577
0.00380482
0.00271911
0.00307494
0.00213304
0.00168821
0.00204219
0.00340615
0.00625562
0.00899888
0.00986225
0.00897615
0.00741724
0.00806209
0.00724866
0.00514553
0.00287052
0.00149595
0.00103917
0.000856239
0.000710074
0.000663324
0.000613339
0.000624414
0.000647757
0.000541164
0.000386141
0.000267229
0.000171989
0.000191752
0.000141307
8.63045e-05
5.63261e-05
3.37132e-05
4.35352e-05
3.98269e-05
2.22018e-05
5.8977e-06
4.02027e-05
8.96515e-05
0.000137523
0.000185131
0.000222246
0.000251196
0.000274411
0.000287185
0.000303904
0.000308283
0.000323645
0.000324845
0.000340749
0.000341209
0.000359458
0.000357208
0.000385472
0.000373233
0.000422071
0.000410155
0.000492667
0.000557273
0.689674
0.667956
0.614213
0.53562
0.447084
0.361724
0.287384
0.226513
0.178272
0.140537
0.111059
0.0879252
0.069647
0.0551033
0.0434576
0.034084
0.0265067
0.0203703
0.0154029
0.0113632
0.0080944
0.0054481
0.00332293
0.00227848
0.00247063
0.00297418
0.00333618
0.00356809
0.00371664
0.00378303
0.00379076
0.0037497
0.00366972
0.00355958
0.00344955
0.00334932
0.00325011
0.00313065
0.00299352
0.00284324
0.00268472
0.00252134
0.00235626
0.00219294
0.0020347
0.00188477
0.00174993
0.0017338
0.00173844
0.00173868
0.00171215
0.00162957
0.00149365
0.00148443
0.00142531
0.00130779
0.00116589
0.00109153
0.00117515
0.00217687
0.00423305
0.00519127
0.00348189
0.00404183
0.00280348
0.00218499
0.00286015
0.0053649
0.00962428
0.0128292
0.0131598
0.0112072
0.00920694
0.010362
0.00960386
0.00701614
0.00405649
0.0022143
0.00152151
0.00117809
0.000938987
0.000875523
0.00081434
0.000849734
0.000915584
0.000796789
0.00055983
0.000340321
0.000202489
0.000240902
0.000178404
0.000127535
0.000103424
6.57545e-05
7.94957e-05
7.7163e-05
5.37411e-05
4.71659e-05
0.000104103
0.000176057
0.000241636
0.000303957
0.000349654
0.000383747
0.000410584
0.000423644
0.000443688
0.000447055
0.000466948
0.000467043
0.000488496
0.000488086
0.000513122
0.000508548
0.000548914
0.000527419
0.000600121
0.000574881
0.000692927
0.000777871
0.660275
0.646909
0.619277
0.572666
0.510737
0.441148
0.371732
0.307844
0.252082
0.205036
0.166142
0.13433
0.108428
0.0873518
0.0701827
0.0561697
0.044709
0.0353242
0.0276404
0.0213361
0.0161752
0.0119514
0.00850773
0.00571173
0.00345284
0.00256567
0.00294649
0.00340931
0.00374428
0.00395578
0.0040752
0.00411773
0.00409763
0.00402795
0.00391811
0.00380366
0.00370184
0.00361818
0.00350587
0.0033669
0.00320964
0.00303927
0.00286032
0.00267743
0.00249499
0.00231707
0.00216846
0.00216534
0.0021757
0.00217278
0.00212729
0.00200319
0.00184777
0.00185416
0.0017977
0.00166368
0.00149849
0.00143787
0.00163019
0.00288902
0.0054198
0.00662348
0.00426333
0.00496472
0.00350093
0.00273555
0.00383601
0.00773375
0.0134926
0.0168545
0.0162714
0.013008
0.0108506
0.0125528
0.0119172
0.00891722
0.00531344
0.00301494
0.00206714
0.00153076
0.00117988
0.00109995
0.00103331
0.00110134
0.00121784
0.00108728
0.000745234
0.000397474
0.000222899
0.000282945
0.000232638
0.000196521
0.000166426
0.000112321
0.000126297
0.000125647
9.65071e-05
0.000117464
0.000197618
0.00029358
0.000376824
0.000453087
0.000506017
0.000543759
0.000573081
0.000585206
0.000608146
0.000609652
0.000634186
0.000632514
0.000659813
0.000657936
0.000690137
0.000682281
0.000735876
0.000702532
0.000801861
0.000759359
0.000913491
0.00101763
0.635131
0.621129
0.603318
0.575875
0.536534
0.487068
0.431803
0.375246
0.320896
0.270996
0.226677
0.188241
0.155458
0.127799
0.104624
0.0852847
0.0691829
0.0557972
0.044688
0.0354703
0.0278372
0.0215237
0.0163163
0.0120354
0.00852616
0.00567543
0.00336819
0.0027264
0.00333133
0.00375833
0.00404906
0.00422594
0.00430916
0.00431726
0.00426269
0.00416092
0.00404248
0.0039412
0.00388213
0.00378336
0.00365065
0.00349221
0.00331459
0.00312423
0.00292691
0.00272768
0.0025915
0.00259754
0.00261314
0.00260438
0.00253535
0.00236431
0.00220339
0.00223287
0.00218627
0.00204091
0.00185525
0.0018126
0.00212501
0.00359074
0.00652985
0.00805084
0.00507905
0.00578729
0.00421888
0.00336191
0.00498966
0.0104675
0.0177095
0.020856
0.0190094
0.0142986
0.0123412
0.0145902
0.0141275
0.0107952
0.00660587
0.0038778
0.00266761
0.00191384
0.00143403
0.0013386
0.00127394
0.00138117
0.00155209
0.00140715
0.000934705
0.000432668
0.000231614
0.000315314
0.000302003
0.000294114
0.00024713
0.00017662
0.000183828
0.000184631
0.000150626
0.00021717
0.000322223
0.000442762
0.00054314
0.000632276
0.000691188
0.000731206
0.000762126
0.000772228
0.000797769
0.000796556
0.00082578
0.000821543
0.000854804
0.000850649
0.000890137
0.000877797
0.000945271
0.000897592
0.00102494
0.000962285
0.0011501
0.00127066
0.613885
0.597972
0.58203
0.562811
0.537124
0.503778
0.463847
0.419585
0.373455
0.327647
0.283863
0.243279
0.206578
0.174033
0.145613
0.121083
0.100094
0.0822494
0.0671568
0.0544362
0.0437529
0.0348058
0.0273371
0.0211244
0.0159727
0.0117282
0.00823355
0.00540667
0.00345294
0.00310114
0.00363749
0.00401165
0.0042514
0.00438239
0.00442189
0.00439116
0.00430228
0.00418141
0.00409374
0.00404898
0.00397022
0.0038487
0.0036927
0.00351106
0.00331157
0.00310072
0.00300497
0.0030208
0.00304087
0.00302409
0.00292868
0.00270847
0.00255527
0.00261571
0.00258691
0.00243633
0.00223299
0.00220924
0.0026448
0.00424273
0.0074938
0.00942156
0.00594229
0.00644786
0.00494504
0.00408291
0.00636836
0.0135342
0.0221061
0.024621
0.021234
0.015065
0.0136743
0.0164494
0.0162
0.0126175
0.00791046
0.00478799
0.00331616
0.00232774
0.0017033
0.00159355
0.00153991
0.0016908
0.00191577
0.00175157
0.00112178
0.000441123
0.000226701
0.000380458
0.000419148
0.000412338
0.000347608
0.000261761
0.0002517
0.000253441
0.000241471
0.000347762
0.000478417
0.000623229
0.0007398
0.000840551
0.0009043
0.000945357
0.000977188
0.000984238
0.00101216
0.00100725
0.00104116
0.00103333
0.00107251
0.00106497
0.0011116
0.00109329
0.00117469
0.00111045
0.00126543
0.00118103
0.00139757
0.00152998
0.595158
0.578175
0.561878
0.545113
0.525705
0.502007
0.47357
0.440919
0.405102
0.367388
0.329058
0.291272
0.254996
0.220969
0.189697
0.161462
0.136351
0.114296
0.0951228
0.0785909
0.0644338
0.0523785
0.0421651
0.0335537
0.0263237
0.0202892
0.0152659
0.0111323
0.00773271
0.00497021
0.00342609
0.00339198
0.00385525
0.00416583
0.00434732
0.00442809
0.00442556
0.00435996
0.00424909
0.00418153
0.00412506
0.00406948
0.00396098
0.00380946
0.00362512
0.00342733
0.00339802
0.00342412
0.00344836
0.00342279
0.00330087
0.00303331
0.00289638
0.00299611
0.00299393
0.00284542
0.0026273
0.00262019
0.00317354
0.00481225
0.00825338
0.0106827
0.00685963
0.00688004
0.00565957
0.00491036
0.00837012
0.0172437
0.0265007
0.0279589
0.0228686
0.015356
0.0148433
0.018117
0.0181174
0.0143667
0.00921373
0.00573508
0.00400765
0.00277355
0.00199004
0.00186619
0.0018341
0.00203111
0.00230624
0.00211649
0.00131859
0.000435417
0.000221399
0.000477584
0.000572294
0.000552162
0.00046993
0.00037045
0.000329217
0.000331098
0.000376756
0.00050915
0.00066511
0.000833196
0.000964847
0.00107593
0.00114363
0.00118466
0.00121694
0.00121993
0.00125005
0.00124029
0.00127875
0.00126602
0.0013108
0.00129845
0.00135168
0.00132567
0.00142021
0.00133772
0.00151791
0.00141156
0.00164983
0.00178776
0.578162
0.560836
0.544138
0.527851
0.510766
0.49171
0.470014
0.445505
0.418352
0.388982
0.35799
0.326053
0.293863
0.262089
0.231346
0.202166
0.17497
0.15005
0.12756
0.107533
0.0899018
0.0745316
0.0612439
0.0498413
0.0401183
0.0318839
0.0249426
0.0191443
0.0143191
0.010339
0.00707684
0.00442525
0.00330847
0.00359154
0.00397586
0.00421953
0.00434642
0.00438297
0.00435201
0.00427399
0.00420431
0.00414671
0.00408141
0.0039867
0.00384025
0.00374137
0.00375793
0.0037955
0.00382485
0.00379198
0.00364703
0.00333859
0.00321755
0.00336545
0.00339987
0.00326209
0.00303236
0.00303663
0.00369442
0.00536883
0.00885516
0.011781
0.00782791
0.00701609
0.00633579
0.00584803
0.01062
0.0211637
0.030706
0.0307214
0.0239064
0.0152669
0.0158432
0.0195892
0.0198729
0.0160332
0.0105084
0.00671167
0.00473846
0.00325296
0.00229735
0.00215696
0.00215867
0.00240254
0.00272103
0.00249876
0.00157978
0.000507731
0.000315044
0.000652679
0.000748674
0.000714509
0.000615721
0.000504519
0.000442335
0.000450452
0.000541346
0.00069929
0.000879458
0.0010693
0.00121489
0.0013351
0.00140619
0.00144627
0.00147877
0.00147664
0.00150877
0.00149278
0.00153547
0.00151624
0.00156597
0.00154706
0.00160593
0.00157031
0.00167626
0.0015745
0.00177541
0.00164805
0.00189981
0.00203561
0.562599
0.54525
0.528435
0.512255
0.495992
0.478926
0.460598
0.440774
0.419341
0.396314
0.371837
0.346145
0.319534
0.292343
0.264954
0.237783
0.211265
0.185817
0.16181
0.139534
0.119186
0.10086
0.0845637
0.0702336
0.0577544
0.0469862
0.0377622
0.0299321
0.0233269
0.0178006
0.0132089
0.00942156
0.00632276
0.00392402
0.00322296
0.00369508
0.00400654
0.00419133
0.00427868
0.00429495
0.00426252
0.00420258
0.00415721
0.00410759
0.00403818
0.00403416
0.00407004
0.00412202
0.00415953
0.00412393
0.0039636
0.00362561
0.00350704
0.00371276
0.00379512
0.00367834
0.00344068
0.00344838
0.00419001
0.00613899
0.00951802
0.0126629
0.00883133
0.00679074
0.00694107
0.00689003
0.0130799
0.0251616
0.0345423
0.032819
0.0244029
0.014912
0.0166692
0.0208643
0.0214612
0.0176077
0.0117878
0.00771085
0.00550594
0.00376814
0.00262898
0.00246456
0.00251453
0.00280503
0.00315806
0.0028962
0.00185659
0.000648474
0.00048318
0.000852628
0.000948011
0.000899871
0.000785786
0.000664446
0.000600576
0.00062018
0.000732325
0.000914007
0.00111661
0.00132631
0.00148485
0.00161314
0.00168743
0.00172583
0.00175852
0.00175016
0.00178408
0.00176029
0.00180662
0.00177901
0.0018327
0.00180521
0.00186824
0.00182108
0.00193568
0.00181446
0.00202981
0.00188314
0.00213975
0.00226521
0.548303
0.531041
0.514275
0.498214
0.482354
0.466213
0.44952
0.43214
0.413965
0.39492
0.374993
0.354216
0.332646
0.31036
0.287463
0.26411
0.240519
0.216967
0.193779
0.171301
0.149865
0.12976
0.111202
0.0943323
0.0792066
0.0658171
0.0540933
0.0439399
0.035226
0.0278165
0.0215684
0.0163412
0.0120032
0.00842728
0.00550723
0.00364159
0.00332731
0.00371966
0.00397472
0.0041257
0.00420151
0.00422774
0.004227
0.00422032
0.00422541
0.00425605
0.00431838
0.00438981
0.00444134
0.00441124
0.00424763
0.00389608
0.00374993
0.00402403
0.0041673
0.00408379
0.00384276
0.0038438
0.00464253
0.00682685
0.00997341
0.0132754
0.00984151
0.00614704
0.00743914
0.00801906
0.0156845
0.0290872
0.0378526
0.0342245
0.0244565
0.0143956
0.017316
0.0219399
0.022873
0.0190759
0.0130416
0.00872339
0.00630773
0.00432147
0.00298937
0.00278524
0.00290099
0.00323804
0.00361573
0.00330771
0.00214921
0.000809835
0.000677835
0.00107576
0.00116959
0.00110791
0.000979669
0.000849015
0.000785725
0.00081483
0.000944349
0.00114686
0.00136963
0.00159701
0.00176773
0.00190324
0.00198098
0.00201712
0.00205021
0.0020345
0.00206993
0.00203656
0.00208573
0.00204767
0.00210397
0.00206571
0.00213101
0.00207046
0.00219014
0.00204996
0.00227242
0.00210855
0.00236168
0.00246909
0.535124
0.517993
0.501343
0.485436
0.469875
0.454288
0.438497
0.422443
0.406062
0.389301
0.372133
0.354559
0.336579
0.318176
0.299319
0.279984
0.260173
0.23994
0.219409
0.198771
0.17828
0.158227
0.138916
0.120627
0.103596
0.0879908
0.0739067
0.0613762
0.0503682
0.040812
0.0326045
0.0256238
0.019741
0.0148227
0.0107474
0.00739714
0.00467026
0.00331363
0.00336667
0.00370558
0.00393282
0.00408086
0.00417719
0.0042467
0.00431091
0.00438647
0.00448429
0.00458349
0.00465836
0.00464588
0.00449538
0.00415031
0.00392727
0.00428145
0.00450058
0.00446505
0.00422674
0.00420971
0.00503401
0.00740892
0.0108586
0.0141824
0.0108183
0.00504058
0.0077922
0.00920695
0.0183578
0.0327984
0.040523
0.0349688
0.0241813
0.0137899
0.0177768
0.0228115
0.0240953
0.0204176
0.0142949
0.00978161
0.00714058
0.00491499
0.00338338
0.00311181
0.00331505
0.00370024
0.00409295
0.00373318
0.002459
0.000993614
0.000896646
0.00132017
0.00141187
0.00133713
0.00119537
0.00105513
0.000990904
0.00102654
0.00116992
0.00138934
0.00162961
0.00187234
0.00205477
0.00219682
0.00227868
0.00231215
0.00234606
0.00232187
0.00235848
0.00231376
0.0023647
0.00231411
0.00237139
0.00232021
0.0023856
0.00231009
0.00243082
0.0022728
0.00249477
0.00231606
0.00255834
0.00264156
0.522936
0.505957
0.489453
0.473709
0.458402
0.443221
0.428031
0.412803
0.397502
0.382088
0.366546
0.350887
0.335131
0.319276
0.303288
0.287102
0.270633
0.253801
0.236554
0.218889
0.200869
0.182628
0.164366
0.146335
0.128812
0.112073
0.0963621
0.0818725
0.0687297
0.0569934
0.0466618
0.037683
0.029971
0.0234142
0.0178951
0.0132911
0.00948744
0.00637665
0.00386237
0.00298773
0.00338827
0.00370513
0.00393605
0.00411178
0.00425913
0.00439789
0.00454574
0.00468498
0.00479635
0.00481743
0.00470026
0.00438494
0.00401496
0.00446228
0.00477463
0.00480496
0.00457801
0.00453138
0.00534626
0.00786005
0.0116545
0.0148505
0.0117185
0.00379662
0.00796022
0.0104114
0.0210167
0.0361623
0.0424815
0.0351275
0.0236813
0.0131291
0.0180437
0.0234734
0.0251143
0.0216097
0.0154729
0.010825
0.0079986
0.00554958
0.00381581
0.00343274
0.00375057
0.00418907
0.00458905
0.00417346
0.00278824
0.00120247
0.00113696
0.0015832
0.00167227
0.00158462
0.00142916
0.00127772
0.00120943
0.00124704
0.00139961
0.00163128
0.00188618
0.00214183
0.00233582
0.00248389
0.00257093
0.00260147
0.00263682
0.00260317
0.00264056
0.00258285
0.00263434
0.00256934
0.00262587
0.00255983
0.00262319
0.0025315
0.00264943
0.0024751
0.0026897
0.00249876
0.00272422
0.00277958
0.511635
0.494816
0.478471
0.462886
0.447801
0.432945
0.418204
0.403564
0.389002
0.374479
0.359974
0.3455
0.331089
0.316771
0.302553
0.288409
0.274276
0.26006
0.245648
0.230934
0.215834
0.200309
0.184382
0.168147
0.151761
0.135444
0.119452
0.104055
0.0895059
0.0760142
0.0637288
0.0527306
0.0430367
0.0346094
0.0273752
0.0212346
0.0160788
0.011796
0.00827833
0.00542497
0.00346396
0.00302409
0.00344148
0.0037651
0.00402849
0.00425614
0.00447469
0.00467142
0.00483664
0.00491082
0.00485015
0.00459044
0.00412728
0.0045376
0.00496344
0.0050818
0.00487889
0.00479264
0.00556093
0.00815476
0.0122436
0.0159841
0.013262
0.00364456
0.00790774
0.011576
0.0235728
0.0390608
0.0436991
0.0348007
0.0230337
0.0124162
0.0181098
0.0239202
0.0259188
0.0226312
0.0165582
0.0118407
0.00887128
0.00622393
0.00429092
0.00373157
0.00419717
0.00470002
0.00510345
0.00463011
0.00314
0.00143976
0.00139573
0.00186142
0.00194701
0.00184608
0.00167573
0.00151005
0.00143303
0.00146674
0.001623
0.00186179
0.00212848
0.00239471
0.00260045
0.00275413
0.0028477
0.0028752
0.00291271
0.00286882
0.00290656
0.00283458
0.00288533
0.00280445
0.00285865
0.00277627
0.00283585
0.0027273
0.00283931
0.00265062
0.00285233
0.00265214
0.00285662
0.00288321
0.501131
0.484473
0.468289
0.452858
0.437968
0.42338
0.408996
0.394807
0.380796
0.366925
0.353165
0.339513
0.325993
0.312642
0.299493
0.286563
0.273843
0.261285
0.24881
0.23631
0.223662
0.210744
0.197456
0.183738
0.169583
0.155051
0.140268
0.125427
0.110766
0.096549
0.0830346
0.0704445
0.0589445
0.0486307
0.0395352
0.0316336
0.0248628
0.0191345
0.014348
0.0103986
0.00718336
0.00460329
0.00318371
0.00313601
0.00356173
0.00391509
0.00423383
0.0045121
0.00475322
0.00490333
0.00492473
0.00474852
0.00432746
0.00447046
0.00503367
0.00526803
0.00510822
0.00497602
0.00565955
0.00826701
0.0125874
0.0170589
0.014893
0.00449094
0.00758387
0.0129593
0.0262224
0.0413964
0.0441872
0.0340914
0.0222828
0.0116372
0.0179719
0.0241464
0.0265013
0.023466
0.0175386
0.0128184
0.00974401
0.00693295
0.00481115
0.00398702
0.0046389
0.00522552
0.00563492
0.00510507
0.00351795
0.00170961
0.00166984
0.0021508
0.00223133
0.00211595
0.00192852
0.00174426
0.0016526
0.00167563
0.00182973
0.00207058
0.00234658
0.00262134
0.00283935
0.00299841
0.0031
0.00312446
0.00316484
0.00311026
0.00314782
0.0030608
0.00310957
0.00301197
0.00306261
0.00296306
0.00301781
0.00289239
0.0029965
0.00279579
0.00298098
0.00277484
0.00295617
0.00295563
0.491346
0.474844
0.458821
0.443537
0.428821
0.414461
0.400369
0.386538
0.372957
0.359591
0.346405
0.333383
0.32053
0.307871
0.29544
0.28327
0.271384
0.259785
0.248447
0.237313
0.226295
0.215281
0.204143
0.192758
0.181015
0.168839
0.156202
0.143136
0.129742
0.11619
0.102703
0.0895374
0.0769537
0.0651826
0.0544027
0.0447252
0.0361949
0.0287998
0.0224862
0.0171735
0.0127662
0.0091623
0.00625948
0.00396135
0.00301914
0.00331095
0.0037714
0.00416431
0.00450912
0.00476145
0.00489245
0.0048293
0.00451215
0.00423147
0.0049424
0.00532853
0.00524052
0.00506295
0.00562371
0.00817014
0.0126437
0.0177621
0.0167146
0.00585898
0.00692148
0.0143053
0.0286766
0.0430944
0.0439894
0.0330878
0.0214445
0.0107758
0.0176339
0.0241468
0.0268564
0.0241026
0.0184073
0.0137517
0.0105994
0.00766619
0.00537482
0.00417439
0.00505315
0.00575332
0.0061804
0.00560004
0.00392602
0.00201668
0.00195654
0.00244713
0.00251984
0.00238796
0.00218034
0.00197222
0.00185921
0.00186453
0.00201087
0.00224943
0.002533
0.00281492
0.00304613
0.00321052
0.00332161
0.00334312
0.00338695
0.00332148
0.0033583
0.00325598
0.00330173
0.00318725
0.00323362
0.00311684
0.00316654
0.00302501
0.00312049
0.00291042
0.0030774
0.00286874
0.00302669
0.00300243
0.482211
0.465861
0.449994
0.43485
0.420291
0.406128
0.392281
0.378743
0.365507
0.352543
0.339814
0.327295
0.314978
0.302873
0.290998
0.279382
0.268055
0.25704
0.24635
0.235976
0.225882
0.216005
0.206257
0.196526
0.186688
0.176619
0.166206
0.15536
0.144036
0.132247
0.120074
0.107663
0.0952244
0.0830044
0.0712633
0.0602404
0.0501266
0.0410474
0.03306
0.0261619
0.0203057
0.0154135
0.0113906
0.00813737
0.00554883
0.00355296
0.00301455
0.00356739
0.00405186
0.00443718
0.00470758
0.00478864
0.00460832
0.00415981
0.00463416
0.00521742
0.00524421
0.00503366
0.00543563
0.00783776
0.012369
0.0180391
0.0189216
0.00791883
0.00581547
0.0153935
0.0307075
0.0441046
0.0431714
0.0318535
0.0205135
0.00982149
0.0171063
0.0239176
0.0269792
0.0245316
0.0191589
0.0146378
0.011421
0.00840795
0.0059752
0.00435884
0.00541045
0.00626443
0.00673319
0.00611547
0.00436777
0.00236581
0.00225406
0.00274671
0.0028072
0.00265574
0.00242416
0.00218645
0.00204524
0.00202632
0.0021603
0.00239353
0.00268408
0.00297275
0.00321847
0.00338847
0.00351039
0.00352912
0.00357674
0.00350044
0.0035359
0.00341848
0.00346037
0.00332951
0.00337142
0.00323807
0.00328323
0.00312701
0.00321424
0.00299763
0.0031464
0.00293841
0.00307427
0.00303043
0.473668
0.457463
0.441747
0.426736
0.412319
0.398329
0.384692
0.371399
0.358447
0.345808
0.333447
0.321338
0.309463
0.297818
0.28641
0.275253
0.264368
0.253782
0.243517
0.233589
0.223998
0.214727
0.205736
0.196961
0.188317
0.179697
0.170983
0.162054
0.152792
0.143102
0.132928
0.122266
0.111177
0.0997895
0.0882953
0.0769336
0.0659641
0.055634
0.0461467
0.0376406
0.030183
0.0237766
0.0183751
0.0139026
0.0102612
0.00736127
0.00509055
0.00354681
0.00330787
0.00386378
0.00430697
0.00456549
0.00455944
0.00425624
0.00409904
0.00487261
0.00507777
0.00486634
0.00507966
0.00724619
0.011722
0.0178309
0.0206207
0.0102787
0.00460836
0.0161292
0.0322199
0.0444
0.0418104
0.0304265
0.0194728
0.00877162
0.0164031
0.0234588
0.0268653
0.0247445
0.0197854
0.0154766
0.0121975
0.00913907
0.00659916
0.00473479
0.00567753
0.00673143
0.00728026
0.00664893
0.00484542
0.00276104
0.00256195
0.003047
0.00308882
0.00291353
0.00265388
0.00238101
0.00220535
0.00215694
0.00227556
0.00250222
0.00280042
0.00309651
0.00335838
0.0035346
0.00366846
0.0036847
0.00373623
0.00364933
0.00368277
0.0035508
0.00358822
0.00344192
0.00347955
0.00333085
0.0033724
0.00320339
0.00328338
0.00306289
0.00319459
0.00298982
0.00310578
0.00304631
0.465664
0.449596
0.434024
0.41914
0.404854
0.391019
0.377564
0.364481
0.351766
0.339395
0.327337
0.315562
0.304052
0.292794
0.281785
0.271026
0.260528
0.250308
0.240385
0.23078
0.221508
0.212575
0.203976
0.195687
0.187668
0.179857
0.172174
0.164519
0.156782
0.148843
0.140585
0.13191
0.122752
0.113094
0.102979
0.0925171
0.0818859
0.0713158
0.061066
0.0513905
0.0425032
0.0345527
0.027612
0.0216877
0.0167316
0.0126746
0.00941559
0.00686686
0.00490206
0.00367622
0.00360602
0.00407845
0.004288
0.00417656
0.00377928
0.00420924
0.00468265
0.00453423
0.00454459
0.00637894
0.0106675
0.0170705
0.0215891
0.0132683
0.00434771
0.0169823
0.0331304
0.0439752
0.0399852
0.0288242
0.0182978
0.00765532
0.0155395
0.0227752
0.0265115
0.0247336
0.0202743
0.0162688
0.0129239
0.00984103
0.00722966
0.00527454
0.00582206
0.00711821
0.0077995
0.00719294
0.0053582
0.00320445
0.00288067
0.00334688
0.00336146
0.00315681
0.00286488
0.00255209
0.00233706
0.00225583
0.002358
0.00257869
0.00288631
0.00319133
0.00347104
0.00365439
0.00380101
0.00381518
0.00387057
0.00377351
0.00380436
0.00365857
0.00369112
0.00353054
0.00356427
0.00340167
0.00344062
0.00326079
0.00333475
0.00311256
0.00322883
0.00302893
0.00312741
0.00305546
0.458153
0.442215
0.42678
0.412017
0.397852
0.384156
0.370862
0.357961
0.345448
0.333303
0.321496
0.309999
0.298791
0.287858
0.277187
0.266775
0.25662
0.246731
0.237118
0.227797
0.218784
0.210091
0.201729
0.193696
0.185982
0.178562
0.171397
0.164429
0.157583
0.15077
0.143884
0.13681
0.129434
0.121656
0.113403
0.104647
0.0954165
0.0858055
0.0759776
0.066154
0.0565907
0.0475444
0.0392356
0.0318214
0.0253796
0.0199248
0.0154095
0.0117674
0.00889072
0.00664672
0.00487753
0.00380637
0.00369066
0.00382834
0.00362248
0.00344456
0.00396613
0.00399611
0.00382576
0.00523246
0.00918316
0.0156906
0.021632
0.0158266
0.00386188
0.0174772
0.0333719
0.0428459
0.03777
0.0270531
0.0169649
0.00656721
0.0145234
0.0218755
0.0259166
0.024494
0.0206097
0.0170139
0.0135997
0.0104999
0.00784707
0.00583392
0.00582308
0.0073827
0.0082579
0.00773192
0.00590035
0.00369487
0.00321016
0.00364614
0.00362341
0.00338253
0.00305426
0.00269821
0.00244079
0.00232555
0.00241204
0.00262872
0.00294802
0.0032638
0.00356276
0.00375419
0.00391413
0.00392683
0.00398601
0.00387941
0.00390731
0.00374856
0.00377604
0.00360241
0.00363259
0.00345754
0.00349467
0.00330578
0.00337467
0.00315235
0.00325475
0.00306048
0.00314365
0.00306141
0.451092
0.435277
0.419972
0.405325
0.391273
0.377703
0.364553
0.351812
0.339475
0.327522
0.315927
0.304663
0.293708
0.283047
0.272664
0.262549
0.252697
0.243106
0.233779
0.224725
0.215953
0.207477
0.199307
0.19145
0.18391
0.176684
0.169757
0.163104
0.156689
0.150458
0.144345
0.138266
0.132124
0.125809
0.119211
0.11223
0.104791
0.096856
0.0884414
0.0796285
0.0705657
0.0614614
0.0525623
0.0441237
0.0363705
0.029472
0.0235162
0.0185259
0.0144552
0.0112078
0.00865141
0.00655367
0.0046453
0.00346255
0.00314234
0.0028712
0.00292412
0.0031726
0.0031121
0.00383065
0.00726724
0.0136478
0.0206328
0.0176557
0.00374222
0.0174155
0.0328899
0.041049
0.0352278
0.0251153
0.0154551
0.00543901
0.0133562
0.0207717
0.0250818
0.0243355
0.0211
0.0177062
0.0142237
0.0111086
0.00843507
0.00638879
0.00568203
0.00748461
0.00861091
0.00823893
0.00645848
0.00422719
0.0035473
0.00394374
0.003874
0.00358917
0.00322059
0.00281968
0.00251921
0.00237092
0.00244375
0.00265892
0.0029919
0.00331993
0.00363897
0.00383928
0.00401282
0.00402479
0.00408775
0.00397249
0.00399731
0.00382664
0.00384901
0.00366354
0.00369043
0.00350422
0.00353998
0.00334343
0.00340779
0.00318633
0.0032761
0.0030875
0.0031571
0.00306605
0.444444
0.428745
0.413564
0.399027
0.385081
0.371627
0.358608
0.34601
0.333826
0.32204
0.310626
0.29956
0.288819
0.278387
0.268248
0.258389
0.2488
0.239473
0.230406
0.221601
0.213062
0.204796
0.196811
0.189116
0.181717
0.174618
0.167819
0.161311
0.155081
0.149105
0.143347
0.137763
0.132291
0.126855
0.121365
0.115717
0.109809
0.103544
0.0968441
0.0896675
0.0820212
0.0739723
0.0656509
0.0572474
0.0489943
0.0411447
0.0339317
0.0275395
0.0220701
0.017538
0.0138921
0.0109502
0.00843703
0.00606578
0.00361992
0.00224286
0.00195224
0.00207443
0.00235583
0.00265348
0.00496912
0.0109381
0.0185612
0.0185143
0.00515451
0.0167549
0.031696
0.0386558
0.0324072
0.0230097
0.0137574
0.0041558
0.0120372
0.0194764
0.0240114
0.0242176
0.0217446
0.0183355
0.0147925
0.0116646
0.0089838
0.00691647
0.00551951
0.00739931
0.00880684
0.00867289
0.00700809
0.00479135
0.00388309
0.00423538
0.00411246
0.00377629
0.00336376
0.00291815
0.00257619
0.00239751
0.00245928
0.00267509
0.00302292
0.00336391
0.00370321
0.00391293
0.00410012
0.00411221
0.00417902
0.00405619
0.00407803
0.00389661
0.00391401
0.00371788
0.0037416
0.00354544
0.00357991
0.0033768
0.00343676
0.00321677
0.00329482
0.00311149
0.00316892
0.00307008
0.438174
0.422586
0.407523
0.393091
0.379245
0.365898
0.352998
0.340528
0.328482
0.316842
0.305586
0.294689
0.284132