/*--------------------------------*- C++ -*----------------------------------*\
| =========                 |                                                 |
| \\      /  F ield         | OpenFOAM: The Open Source CFD Toolbox           |
|  \\    /   O peration     | Version:  2412                                  |
|   \\  /    A nd           | Website:  www.openfoam.com                      |
|    \\/     M anipulation  |                                                 |
\*---------------------------------------------------------------------------*/
FoamFile
{
    version     2.0;
    format      ascii;
    arch        "LSB;label=32;scalar=64";
    class       surfaceScalarField;
    location    "0.23";
    object      ddtCorrDdt0(phi);
}
// * * * * * * * * * * * * * * * * * * * * * * * * * * * * * * * * * * * * * //

dimensions      [0 3 -2 0 0 0 0];

oriented        oriented;

internalField   nonuniform List<scalar> 
24930
(
-0.0140499
-0.010074
0.0236234
-0.00497563
-0.00889507
-0.00444906
-0.00737282
-0.00427371
-0.00398999
-0.00330772
-0.00113525
-0.00241109
-0.000497691
-0.00173953
-0.000151319
-0.00152961
5.68614e-05
-0.0020569
-0.000439262
-0.00319004
-0.00118174
-0.00396823
-0.0017376
-0.00373646
-0.00166831
-0.00270784
-0.000946064
-0.00164717
-9.65936e-05
-0.00120425
0.000349669
-0.00126849
0.000295608
-0.00090911
0.000235064
0.000696543
0.000979895
0.00263128
0.00287695
0.00375158
0.00424517
0.0029508
0.00378446
0.00107978
0.00113588
-3.29075e-05
-0.00087397
0.000396314
-0.000259319
0.00179897
0.000145405
0.00298269
-0.00446242
-0.00206306
-0.00782624
-0.00713433
-0.0132728
-0.00579553
-0.0161871
-0.00278228
-0.00396227
-0.00912568
0.01589
0.00878934
-0.0156804
0.0140675
-0.0232195
-0.036167
0.0437487
0.00492581
-0.00250341
0.0186925
0.0413843
0.0127542
0.039718
0.00420001
0.0164208
-0.0019213
0.00227366
-0.00375439
-0.00198334
-0.00442844
-0.00682669
-0.00494887
-0.00914726
-0.00299406
-0.00787605
0.000773372
-0.00635072
0.00400246
-0.0039806
0.00636945
0.000157644
0.014239
0.00366953
0.0183528
0.00596932
0.0168977
0.00992975
0.0116562
0.0126313
0.00679899
0.00694418
0.00984794
-0.00821095
-0.00770348
-0.00963339
-0.00848919
0.00155118
-0.0173094
0.00604846
-0.0244064
-0.00304945
-0.028202
-0.0058957
-0.022805
0.00196137
-0.00894523
-0.0111442
-0.021381
-0.0170848
-0.0275861
-0.0172438
-0.0152694
-0.0457549
0.0499265
-0.0056217
0.0399103
0.0195941
0.0364781
0.0276312
-0.0203456
-0.0923002
0.0240561
-0.114193
0.106345
-0.141504
0.0894814
0.0302276
0.0834851
0.113507
0.0476647
0.13321
-0.0426738
0.159447
-0.00718921
0.249052
-0.0732934
0.102805
-0.0730024
-0.0204248
-0.062579
-0.0558343
-0.0428034
-0.0486675
-0.0255478
-0.0464976
-0.0149854
-0.0383728
-0.00830337
-0.0300135
-0.00201746
-0.0234489
-0.000246217
-0.00753461
0.00309
0.00669744
0.0123419
-0.00892255
0.0236093
-0.019244
0.0276789
-0.00441016
0.0178413
0.0253201
0.00328025
0.0313578
-0.00246309
0.0323924
-0.00845204
0.00899335
-0.0105744
-0.00357343
-0.00958518
-0.0107863
-0.00355341
-0.01081
-0.000909561
-0.0638461
0.00420263
-0.00994482
0.00481857
-0.00125784
0.00388954
0.00175757
0.000459655
0.00575466
-0.00323117
0.009317
-0.00724429
0.00885001
-0.0120604
0.00730729
-0.0123007
-0.000706097
-0.0128624
-0.00149846
-0.0118451
-0.00348266
-0.0102106
-0.00394501
-0.00846115
-0.00333469
-0.00725879
-0.00253459
-0.00633622
-0.00171331
-0.00531467
-0.00226848
-0.0048339
-0.00069077
-0.00415634
9.31847e-05
-0.00440067
0.00108092
-0.00390075
-0.000693723
-0.00573328
0.00082099
-0.00609369
0.000568408
-0.00486718
-0.00246913
-0.00610176
0.00077398
-0.00700664
0.00382548
-0.0101375
0.00396554
-0.00156229
-0.024066
-0.00290582
0.0272012
-0.0198096
-0.00773999
-0.017703
-0.0103321
-0.0153519
-0.00796414
-0.0121715
-0.00455995
-0.00946049
-0.00269529
-0.00768574
-0.00195509
-0.0069915
-0.0018177
-0.00726841
-0.00200061
-0.00771564
-0.0019452
-0.00750355
-0.00147954
-0.006399
-0.000621541
-0.00487873
0.000416872
-0.00373331
0.00128644
-0.00329586
0.00183313
-0.00305084
0.00218722
-0.00209301
0.00264181
-0.000495138
0.00366012
0.00185401
0.00376893
0.00244073
0.00377749
0.00110246
0.00225131
-0.000534977
-0.000720196
-0.00088478
-0.00287525
-2.55831e-05
-0.00367542
0.000839297
-0.00621424
-0.000191757
-0.0136308
-0.00521816
-0.0144815
-0.00738825
-0.0147663
-0.00397815
-0.0162896
-0.00182173
-0.00384582
-0.00507603
0.0205261
0.00902533
-0.019492
0.00650165
-0.00673038
-0.0294651
0.118079
0.0144735
0.0020574
0.0186137
0.0676657
0.0110422
0.0579462
0.00311378
0.0214817
-0.00205104
-0.00033696
-0.00322733
-0.00475534
-0.00328178
-0.00812324
-0.00252611
-0.00957386
0.00121029
-0.00668137
0.00697063
-0.00464643
0.0125028
-0.00250517
0.0179898
0.000681006
0.0287039
0.000258059
0.0349792
0.00253924
0.0370128
0.00530721
0.03323
0.00520925
0.0281643
-0.000112151
0.0267798
-0.0106421
0.00379581
0.00118676
-0.00758709
0.0244355
-0.0322731
0.03941
-0.0563216
0.0367553
-0.0762355
0.0316257
-0.0856104
0.0314591
-0.0823832
-0.00242737
-0.102631
-0.00976874
-0.0982817
-0.0419979
-0.0233862
-0.152442
0.102995
-0.0990904
0.101775
-0.00586686
0.0728641
0.0379891
0.0558734
-0.171495
0.17601
-0.260864
0.298556
-0.260998
0.34849
0.0269079
0.271343
0.314242
0.104994
0.409394
-0.109952
0.418494
-0.182149
0.47244
-0.280929
0.161235
-0.263561
-0.0653599
-0.209755
-0.150851
-0.139499
-0.15127
-0.0728347
-0.151688
-0.0289684
-0.110512
-0.00435026
-0.0669242
0.00668967
-0.024988
0.00434766
0.00046738
0.0111315
0.00094858
0.0431968
-0.049042
0.0802173
-0.0620157
0.0864165
-0.00214533
0.0501611
0.078693
0.00260589
0.0913746
-0.0223634
0.0661169
-0.0322872
0.0102507
-0.0316577
-0.0123633
-0.023942
-0.0239817
-0.00812858
-0.0291023
0.0024698
-0.105591
0.0129401
-0.0141198
0.0135419
-0.00147895
0.00757245
0.00854505
-0.00472264
0.0199526
-0.0184068
0.0242304
-0.0350531
0.0236909
-0.0386081
0.00814981
-0.0428181
0.00045671
-0.042574
-0.00357503
-0.0387976
-0.00827004
-0.0335362
-0.0100897
-0.0286058
-0.00852965
-0.0243528
-0.00793928
-0.0218062
-0.00384204
-0.0190843
-0.00506151
-0.0184581
-0.000968995
-0.0173426
-0.00104264
-0.0181794
0.00119919
-0.0180061
-0.00106822
-0.0213667
0.00220441
-0.0224549
0.00159553
-0.0227729
-0.000606375
-0.0269969
0.00424803
-0.028388
0.00370302
-0.0378884
0.013704
0.00323279
-0.0270052
-0.00106627
0.0282228
-0.0276988
-0.00577038
-0.0285653
-0.00981256
-0.0271938
-0.0104196
-0.0235027
-0.00860543
-0.0194852
-0.0064807
-0.0164253
-0.00524505
-0.0147283
-0.00477526
-0.0141423
-0.00444504
-0.0137426
-0.00362642
-0.0126599
-0.00226615
-0.0107606
-0.000722502
-0.00865217
0.000620299
-0.0071416
0.00158284
-0.00641051
0.00233712
-0.0057083
0.00319231
-0.00396995
0.00415357
-0.00126755
0.00512686
0.000769408
0.00449074
0.000618512
0.00304891
-0.000946543
0.000111932
-0.00237697
-0.00264777
-0.00207078
-0.00469287
-0.000939376
-0.00700053
-0.000991888
-0.0122726
-0.00512662
-0.0201254
-0.00940064
-0.0181838
-0.00738081
-0.0123565
-0.0012429
-0.0109248
0.000175787
-0.000289157
0.00109674
0.0192443
0.00604561
-0.0179359
-0.00452945
0.0217956
-0.0145353
0.180362
0.0229202
0.00526781
0.0166441
0.0878587
0.00905842
0.064052
0.00253384
0.0190658
-0.00147211
-0.00573679
-0.00198048
-0.00907939
-0.00123926
-0.010524
0.000839727
-0.0112887
0.00630249
-0.00659181
0.0141977
-0.00339948
0.0222038
-0.00112336
0.0306537
0.000645613
0.0440718
-0.00315028
0.0534566
-0.00265039
0.057927
-0.00422194
0.0549949
-0.0074743
0.048782
-0.0112759
0.0417276
-0.0137441
0.0137215
0.0252429
-0.0101262
0.050826
-0.0509496
0.0829999
-0.0914583
0.0908184
-0.12643
0.0861109
-0.1479
0.0791435
-0.153331
0.0217565
-0.17888
0.0186046
-0.164714
-0.0616838
-0.0285649
-0.300431
0.157115
-0.308693
0.173959
-0.0426098
0.116959
0.0622647
0.158869
-0.231852
0.351598
-0.504112
0.563418
-0.477218
0.612739
-0.00745393
0.43548
0.57758
0.129499
0.802936
-0.190192
0.790904
-0.376229
0.65125
-0.489417
0.273986
-0.454744
-0.103253
-0.359832
-0.268817
-0.240163
-0.291247
-0.12348
-0.301788
-0.043212
-0.217986
0.000616008
-0.127134
0.0169655
-0.0327095
0.0126035
0.0224446
0.0257299
-0.0125488
0.0823984
-0.11271
0.142595
-0.12801
0.145479
0.000262605
0.078927
0.156997
-0.00152689
0.18382
-0.0453799
0.11136
-0.0578705
0.0189359
-0.0536882
-0.022801
-0.0388757
-0.0449466
-0.0146917
-0.0548007
0.0053856
-0.11865
0.0193985
-0.0270537
0.0188392
-0.00211819
0.00628207
0.021668
-0.0158972
0.0439552
-0.0413375
0.0502908
-0.0588423
0.0408737
-0.0730581
0.0210296
-0.0782586
0.00385723
-0.0764545
-0.00682681
-0.0694402
-0.0162201
-0.0601814
-0.0203379
-0.0521565
-0.0169587
-0.0448442
-0.0166912
-0.0410702
-0.00771237
-0.0373295
-0.00914004
-0.0365475
-0.00152269
-0.0356302
-0.00198458
-0.0371631
0.00221498
-0.0377634
-0.000403882
-0.0429953
0.00524746
-0.0450934
0.00337978
-0.0475195
0.00352559
-0.0552628
0.0120008
-0.0570945
0.00451834
-0.0734344
0.0302356
0.0144301
-0.0272785
-0.00111506
0.0293717
-0.029771
-0.00288662
-0.0338764
-0.00650302
-0.0357175
-0.00942185
-0.0341249
-0.0102427
-0.0307741
-0.00958483
-0.0273532
-0.00864011
-0.0248061
-0.00778988
-0.0231957
-0.00682654
-0.0217868
-0.00541493
-0.0197712
-0.00361461
-0.0170473
-0.0018652
-0.0142513
-0.000532958
-0.0121715
0.00035181
-0.0109165
0.00114077
-0.00965411
0.00221288
-0.00731429
0.00343312
-0.00414898
0.00431972
-0.00179942
0.0033616
-0.00174022
0.00124125
-0.0035271
-0.0018126
-0.00477905
-0.00389242
-0.00399185
-0.00550831
-0.00278333
-0.00849141
-0.0032889
-0.015073
-0.00797397
-0.0228084
-0.0119784
-0.0196552
-0.00811921
-0.00863915
0.000153657
-0.00448258
0.00207153
0.00228841
0.00556813
0.0127984
0.00109285
-0.0111006
-0.0109623
0.047689
0.00428767
0.212232
0.0247811
0.00901689
0.0139031
0.0981188
0.00767537
0.058818
0.002585
0.0112649
-0.000254536
-0.0118686
-7.23994e-05
-0.0134972
0.0015602
-0.013412
0.00507752
-0.0144421
0.0123482
-0.00870352
0.0224596
-0.00478234
0.0329607
-0.00289265
0.0448771
-0.00291135
0.0604077
-0.00976118
0.072935
-0.0106712
0.0793599
-0.015496
0.0767006
-0.0201606
0.0686019
-0.0193891
0.0530435
-0.00946831
0.0237313
0.0681204
-0.0157512
0.089709
-0.0723849
0.140172
-0.128595
0.157944
-0.177128
0.151055
-0.208498
0.13367
-0.21417
0.0440412
-0.248705
0.056549
-0.228706
-0.0922257
-0.0370363
-0.495157
0.212926
-0.61425
0.256641
-0.102574
0.178108
0.0920494
0.284425
-0.275689
0.557396
-0.824304
0.846948
-0.757756
0.87424
-0.0118849
0.573552
0.963308
0.11939
1.34579
-0.292152
1.25805
-0.577247
0.812816
-0.694817
0.390745
-0.64313
-0.163919
-0.511267
-0.425955
-0.345027
-0.477388
-0.178036
-0.500838
-0.0591502
-0.362241
0.00623606
-0.209174
0.0293955
-0.0473788
0.0250493
0.0422046
0.0473021
-0.0342898
0.129703
-0.20136
0.209916
-0.212724
0.204053
0.0128368
0.10379
0.268865
-0.00996559
0.309537
-0.0710638
0.173401
-0.0855772
0.0289926
-0.077135
-0.0379471
-0.0524684
-0.0761105
-0.0209913
-0.0881225
0.00692006
-0.10056
0.0234245
-0.0427808
0.0186311
0.00187844
-0.0106073
0.0502166
-0.0330195
0.0658395
-0.0664392
0.0847122
-0.0946401
0.0685112
-0.112932
0.0380115
-0.11847
0.00744232
-0.114606
-0.0123182
-0.104084
-0.0277803
-0.0909244
-0.0345429
-0.0798092
-0.0284505
-0.0699801
-0.0279741
-0.0650367
-0.0126432
-0.0604382
-0.0139387
-0.0601398
-0.00142276
-0.0596891
-0.00229686
-0.0625207
0.00468237
-0.0642079
0.00151559
-0.0719125
0.0107885
-0.0753104
0.00664052
-0.0804559
0.010666
-0.0918274
0.0235029
-0.0944412
0.00614294
-0.11768
0.0537312
0.031866
-0.0271283
-0.00125462
0.0308089
-0.0291882
-0.000817407
-0.0345983
-0.00278634
-0.0389556
-0.0059193
-0.040478
-0.00849616
-0.0398118
-0.00993415
-0.0379533
-0.0103847
-0.0358489
-0.0100342
-0.0339322
-0.00904721
-0.0318781
-0.00755458
-0.0291135
-0.00580624
-0.0256163
-0.00421803
-0.0220615
-0.00309525
-0.0192459
-0.002393
-0.0172726
-0.00171313
-0.0153093
-0.000672437
-0.0123237
0.000585351
-0.0086694
0.00140161
-0.00595128
0.00059239
-0.00566336
-0.00139667
-0.00716394
-0.00374297
-0.00790858
-0.00466347
-0.0067993
-0.00523463
-0.00563273
-0.00770009
-0.00615395
-0.013717
-0.01025
-0.0201081
-0.0135254
-0.0173278
-0.00905467
-0.00279505
0.000414157
0.00138295
0.00296966
0.00194529
0.00587989
0.00561108
-0.000298833
-0.00288269
-0.00969118
0.0606501
0.0250505
0.202061
0.0158626
0.0135473
0.010972
0.0905809
0.00670298
0.045835
0.00316783
0.000529976
0.00151063
-0.0179915
0.00243251
-0.017151
0.00501041
-0.0165432
0.0100883
-0.0190193
0.0192274
-0.013058
0.0315699
-0.00891044
0.0445661
-0.0083695
0.059334
-0.00938623
0.0775497
-0.0251047
0.0926402
-0.020895
0.100576
-0.0282644
0.0975445
-0.0324797
0.0867738
-0.0241632
0.0626416
0.000168002
0.0311789
0.105012
-0.0239674
0.139439
-0.0956624
0.206707
-0.166234
0.234003
-0.226235
0.223739
-0.264957
0.195634
-0.307301
0.112073
-0.309753
0.0643652
-0.289005
-0.12106
-0.0551961
-0.71387
0.27183
-0.959819
0.348814
-0.192444
0.265906
0.111777
0.425414
-0.434673
0.793564
-1.23161
1.15001
-1.0982
1.12505
0.0288734
0.673253
1.46809
0.0706603
2.00573
-0.426279
1.80321
-0.764817
1.09421
-0.889406
0.519667
-0.822259
-0.229643
-0.660727
-0.602677
-0.453401
-0.694864
-0.237192
-0.741901
-0.0778534
-0.542083
0.0118392
-0.314206
0.0440538
-0.0734848
0.042228
0.0530774
0.076552
-0.0678872
0.184337
-0.310782
0.280547
-0.310953
0.260666
0.0376248
0.124125
0.411453
-0.0227381
0.465069
-0.0993335
0.251549
-0.115223
0.0411757
-0.102929
-0.0568819
-0.0690952
-0.115582
-0.0287095
-0.129982
0.00542447
-0.115647
0.0228733
-0.0597893
0.0132336
0.010071
-0.0158717
0.0802771
-0.0592893
0.108908
-0.102638
0.128094
-0.137595
0.102459
-0.159293
0.0585307
-0.164577
0.0109069
-0.158182
-0.019997
-0.143962
-0.0426201
-0.126791
-0.0524034
-0.112844
-0.0424474
-0.100523
-0.0415792
-0.0949651
-0.0180529
-0.090026
-0.0189923
-0.090431
-0.000563588
-0.090988
-0.001558
-0.0953962
0.00868458
-0.0986353
0.0050198
-0.109195
0.0189189
-0.114234
0.0114386
-0.122521
0.0210118
-0.138011
0.0391014
-0.141427
0.00856273
-0.17118
0.0834614
0.0546238
-0.0276032
-0.00120935
0.0323641
-0.0287243
-0.000167281
-0.0336533
-0.000589712
-0.0385742
-0.0025374
-0.0419893
-0.00510748
-0.0440545
-0.00758492
-0.0449348
-0.00943135
-0.044949
-0.0103091
-0.0443084
-0.0102349
-0.0428047
-0.0094822
-0.0400752
-0.00839669
-0.0362537
-0.00734714
-0.0321365
-0.00660342
-0.0286111
-0.00615282
-0.0258535
-0.00566563
-0.0230903
-0.00479167
-0.0193801
-0.00361715
-0.0151265
-0.00279039
-0.0119058
-0.00321907
-0.0111544
-0.00454745
-0.0121202
-0.00568938
-0.0123662
-0.00518361
-0.0110452
-0.0042927
-0.00962822
-0.00544923
-0.00959626
-0.00966689
-0.0130818
-0.013163
-0.0150928
-0.0123934
-0.0106912
0.00496185
-0.000532448
0.00552872
0.00259591
-0.00127928
0.0050616
-0.00283339
0.00186461
0.000257041
-0.00217909
0.0556004
0.0382462
0.162178
0.00636158
0.00611083
0.00577998
0.0589649
0.00594278
0.02393
0.00404256
-0.0110286
0.00368577
-0.0219959
0.00533851
-0.0198846
0.00886204
-0.0190865
0.0156218
-0.0241156
0.0266534
-0.019499
0.0411401
-0.0161434
0.0565895
-0.0175542
0.075777
-0.0237018
0.0929458
-0.038742
0.111945
-0.0357628
0.120848
-0.0419126
0.116887
-0.0432481
0.102997
-0.023855
0.0730069
0.0167655
0.0340945
0.14264
-0.0335653
0.201345
-0.119062
0.285053
-0.202371
0.320617
-0.271798
0.303919
-0.315233
0.260382
-0.342544
0.164821
-0.360574
0.0872754
-0.345426
-0.146932
-0.0825273
-0.955093
0.323848
-1.37027
0.449175
-0.326765
0.375365
0.115297
0.590028
-0.665596
1.06275
-1.72853
1.46716
-1.47292
1.35531
0.155289
0.72584
2.13329
-0.0151401
2.78592
-0.575898
2.40802
-0.940473
1.41766
-1.06771
0.648268
-0.989477
-0.30762
-0.807582
-0.798159
-0.566157
-0.94263
-0.30269
-1.02585
-0.10109
-0.761042
0.0162518
-0.445653
0.0608978
-0.111828
0.0649461
0.0564931
0.113508
-0.114536
0.245366
-0.442138
0.352985
-0.41857
0.314302
0.0810934
0.13961
0.589633
-0.0393508
0.651521
-0.130245
0.344855
-0.147283
0.0541223
-0.125361
-0.0857296
-0.0872087
-0.159141
-0.0389951
-0.179401
-0.000351032
-0.152779
0.0162248
-0.0762411
8.31201e-05
0.0246118
-0.0396177
0.124143
-0.0938808
0.162076
-0.146835
0.18104
-0.188077
0.142955
-0.21259
0.0816534
-0.2172
0.0136498
-0.208051
-0.0304638
-0.190075
-0.06116
-0.169044
-0.074045
-0.152382
-0.0590514
-0.137972
-0.057227
-0.131935
-0.0238311
-0.126831
-0.0241014
-0.128418
0.00160899
-0.130259
0.000584291
-0.136715
0.0148096
-0.141802
0.0105009
-0.155689
0.0302892
-0.16262
0.0182142
-0.174412
0.0350907
-0.194011
0.0588798
-0.198669
0.0122438
-0.23414
0.118757
0.0815053
-0.0287609
-0.000959095
0.0341362
-0.0293549
-0.000246779
-0.0332799
2.62283e-05
-0.0373897
-0.000675075
-0.0408596
-0.00222471
-0.0440718
-0.00436569
-0.0470171
-0.00660814
-0.0495731
-0.00842214
-0.0514301
-0.00954496
-0.0519879
-0.0100598
-0.0506883
-0.0101635
-0.0476321
-0.0100609
-0.0437063
-0.00995858
-0.0399395
-0.00992628
-0.0366528
-0.00976821
-0.033195
-0.00918575
-0.0287812
-0.00820134
-0.0238623
-0.00735605
-0.0200091
-0.00733896
-0.018582
-0.00785613
-0.0188112
-0.00781458
-0.018429
-0.00602836
-0.0167559
-0.00369484
-0.0150682
-0.0030826
-0.0147842
-0.00467203
-0.0171589
-0.00515793
-0.0270171
0.00238993
-0.0136034
0.00314326
-0.00310823
0.00682661
0.000871137
-0.00650395
0.00400313
-0.0128237
0.00428198
-0.00405936
0.00460388
0.0360892
0.0342736
0.113976
0.00739232
-0.00734169
0.00302503
0.019195
0.00543817
-0.000346785
0.00561645
-0.0212125
0.00599317
-0.0233805
0.00849866
-0.0210821
0.0128962
-0.0225118
0.0213434
-0.0315787
0.0341545
-0.0277706
0.0507093
-0.0258136
0.0680226
-0.0330075
0.0897243
-0.040769
0.109438
-0.0561707
0.129977
-0.0532216
0.139434
-0.0559949
0.134157
-0.0517032
0.116893
-0.0182299
0.0821601
0.0410599
0.0346467
0.186493
-0.0430487
0.274155
-0.140725
0.374198
-0.234969
0.416766
-0.311866
0.390839
-0.35792
0.32732
-0.381271
0.215831
-0.400531
0.108099
-0.39732
-0.164347
-0.12153
-1.2044
0.364243
-1.84008
0.555135
-0.523828
0.504728
0.0906246
0.783793
-0.96366
1.36897
-2.31762
1.79103
-1.85903
1.55305
0.4017
0.726143
2.97665
-0.131724
3.66498
-0.727199
3.037
-1.09702
1.77034
-1.2257
0.775844
-1.14308
-0.388373
-0.95178
-1.0006
-0.684822
-1.21228
-0.377019
-1.34996
-0.13112
-1.02132
0.0181362
-0.607238
0.0797995
-0.166428
0.0938045
0.0502493
0.15799
-0.175128
0.311481
-0.592583
0.425525
-0.531303
0.364033
0.146147
0.150192
0.804264
-0.0596097
0.86651
-0.163804
0.450797
-0.184146
0.0701114
-0.154493
-0.122068
-0.108125
-0.210148
-0.0532586
-0.234787
-0.0118961
-0.193392
0.00218636
-0.0893528
-0.0217352
0.0459204
-0.0711957
0.17275
-0.137503
0.226535
-0.199758
0.243125
-0.246948
0.189054
-0.273936
0.107173
-0.277699
0.0156037
-0.2657
-0.0436251
-0.243984
-0.0831973
-0.219105
-0.0993334
-0.199895
-0.0779937
-0.183403
-0.0748928
-0.1772
-0.0296731
-0.172204
-0.0290388
-0.1751
0.00513993
-0.17855
0.00436744
-0.18722
0.0231064
-0.194435
0.0181413
-0.211841
0.0449472
-0.220863
0.0270428
-0.236226
0.0528429
-0.259895
0.0827066
-0.266138
0.0174303
-0.306141
0.158269
0.110612
-0.0303032
-0.000494178
0.0361909
-0.0308074
-0.000243079
-0.0341201
2.42682e-05
-0.0372024
-7.89519e-05
-0.0396823
-0.000661369
-0.0424228
-0.00186726
-0.0457965
-0.00359031
-0.0497684
-0.00548482
-0.0538089
-0.00720511
-0.0569197
-0.00865146
-0.0581119
-0.00983948
-0.0571366
-0.0107783
-0.0546923
-0.011544
-0.0517742
-0.0122177
-0.048778
-0.0126898
-0.0451787
-0.0126788
-0.0403979
-0.0121401
-0.0349728
-0.0114786
-0.0305073
-0.0112445
-0.0283137
-0.0112157
-0.0276765
-0.0104251
-0.0265539
-0.0079021
-0.0244247
-0.00463545
-0.0222537
-0.00242566
-0.0212031
-0.00151124
-0.0221291
0.000372972
-0.022408
0.00584456
-0.0176718
0.00767821
-0.00787777
0.00538937
-0.00263443
-0.0129366
0.00224984
-0.023858
0.00530949
-0.0156939
0.0091349
0.00687397
0.0271146
0.0579009
0.00827613
-0.0296967
0.00133756
-0.020376
0.00402489
-0.0216622
0.00774991
-0.0270445
0.00895205
-0.0232866
0.0109125
-0.0198996
0.01611
-0.0264149
0.0266583
-0.0386641
0.0413504
-0.039257
0.0590129
-0.0403918
0.0793173
-0.0493163
0.102329
-0.0577175
0.124146
-0.0778875
0.146074
-0.0729496
0.155676
-0.0701241
0.148971
-0.0574547
0.128543
-0.00762894
0.0902906
0.0731685
0.0354157
0.239223
-0.0506912
0.356819
-0.158617
0.472901
-0.262092
0.521322
-0.344919
0.48351
-0.392283
0.395323
-0.412497
0.265217
-0.429119
0.12493
-0.443772
-0.169539
-0.174747
-1.44678
0.385759
-2.37218
0.663048
-0.803778
0.654163
0.0212287
1.00735
-1.33688
1.58121
-2.87986
2.11036
-2.34347
1.70597
0.806337
0.673103
4.00792
-0.266867
4.61493
-0.867072
3.66622
-1.23166
2.10999
-1.36206
0.900766
-1.28314
-0.466267
-1.094
-1.20055
-0.811891
-1.49421
-0.463673
-1.71188
-0.171024
-1.32563
0.0155617
-0.804412
0.100136
-0.242798
0.128771
0.0299796
0.20953
-0.251283
0.381296
-0.759444
0.496631
-0.644398
0.409348
0.235965
0.156215
1.05617
-0.0830841
1.10955
-0.200487
0.568768
-0.213559
0.0788243
-0.185962
-0.156398
-0.132878
-0.267433
-0.0728094
-0.294773
-0.0301265
-0.235161
-0.0199994
-0.0983463
-0.0521755
0.0766159
-0.112915
0.234963
-0.190442
0.302794
-0.261782
0.314093
-0.314893
0.241035
-0.344407
0.135131
-0.347491
0.0168435
-0.332774
-0.059512
-0.30739
-0.108818
-0.278699
-0.128354
-0.256895
-0.0994242
-0.238338
-0.0946103
-0.231895
-0.0356842
-0.226937
-0.0338764
-0.231228
0.0101465
-0.236307
0.00984241
-0.247278
0.0337177
-0.256637
0.0280044
-0.27758
0.0629743
-0.288692
0.0379844
-0.307418
0.0741383
-0.334531
0.110009
-0.342825
0.0246135
-0.385841
0.200489
0.139771
-0.0320708
0.000137977
0.0385174
-0.0326423
0.000147282
-0.0358253
0.000175385
-0.0383265
0.000128424
-0.0397966
1.49044e-05
-0.0413864
-0.000429212
-0.0439511
-0.00138524
-0.0478231
-0.00276644
-0.0526167
-0.00429298
-0.0572901
-0.00581568
-0.0606671
-0.00732203
-0.0621977
-0.0087896
-0.0622313
-0.0102322
-0.06145
-0.0116965
-0.0600475
-0.0130734
-0.0574444
-0.0140242
-0.0531838
-0.0143894
-0.0478883
-0.0144086
-0.0432148
-0.0145229
-0.0404681
-0.0145895
-0.0390467
-0.0138259
-0.0371852
-0.0114249
-0.0345148
-0.00806864
-0.0316906
-0.00494628
-0.0297267
-0.00225141
-0.0293516
0.00120566
-0.0296464
0.00554988
-0.0243166
0.00747336
-0.015277
0.00128338
-0.00849645
-0.019395
-0.00114784
-0.0342327
0.00378095
-0.0315081
0.0107996
-0.0238544
0.0192865
0.00266467
0.00738783
-0.0536889
4.53295e-05
-0.0519674
0.00341356
-0.0371253
0.00842947
-0.0281133
0.0103307
-0.0187419
0.013983
-0.0208077
0.019001
-0.0282901
0.0305275
-0.045407
0.0465575
-0.0526866
0.0675323
-0.0574273
0.0872311
-0.0636081
0.114338
-0.0859435
0.136495
-0.0990103
0.159483
-0.0942424
0.169078
-0.0841017
0.161216
-0.0606276
0.13834
0.00700974
0.0981752
0.11169
0.0378334
0.298628
-0.0545195
0.447288
-0.170702
0.579702
-0.282049
0.63346
-0.369939
0.581765
-0.418164
0.464247
-0.435292
0.311711
-0.444656
0.135079
-0.483669
-0.157427
-0.244248
-1.66384
0.380201
-2.95951
0.768486
-1.18771
0.823923
-0.113659
1.265
-1.79686
1.99367
-3.58116
2.41619
-2.7182
1.79199
1.4189
0.572691
5.21099
-0.403824
5.59851
-0.986799
4.27577
-1.34043
2.44427
-1.47679
1.02788
-1.40951
-0.533751
-1.23382
-1.38747
-0.950818
-1.77517
-0.567024
-2.10766
-0.224889
-1.67707
0.00582305
-1.04388
0.120768
-0.3481
0.1695
-0.00919868
0.267308
-0.343327
0.453326
-0.939319
0.564951
-0.75353
0.450133
0.352118
0.152146
1.35132
-0.110182
1.37459
-0.22839
0.687845
-0.253797
0.0992839
-0.22102
-0.195598
-0.162627
-0.329812
-0.0987657
-0.35802
-0.0565094
-0.276157
-0.0506872
-0.104588
-0.0925207
0.114205
-0.163702
0.305262
-0.252576
0.38987
-0.333234
0.3944
-0.392831
0.299454
-0.425491
0.166165
-0.428497
0.0180237
-0.411405
-0.0777391
-0.382459
-0.137879
-0.349805
-0.16125
-0.325171
-0.123568
-0.304158
-0.116796
-0.297203
-0.0421517
-0.292022
-0.0389078
-0.297364
0.0162397
-0.30388
0.0167733
-0.316829
0.0462601
-0.328102
0.0398121
-0.352135
0.0838545
-0.365104
0.0507458
-0.386505
0.0982356
-0.41607
0.139759
-0.426516
0.0338211
-0.470667
0.243458
0.1667
-0.0340043
0.000870797
0.0410764
-0.0347083
0.00083168
-0.0379565
0.00069143
-0.0402856
0.00056052
-0.0412002
0.00055681
-0.0418394
0.000460335
-0.0432973
3.02046e-05
-0.0461988
-0.000769104
-0.0504076
-0.00171871
-0.055099
-0.00267445
-0.059264
-0.00370172
-0.0623831
-0.00491518
-0.0646461
-0.00641165
-0.0664282
-0.00826563
-0.0675703
-0.0103893
-0.0672199
-0.0124097
-0.0648004
-0.0140441
-0.0608558
-0.0153338
-0.0569844
-0.0165624
-0.05445
-0.0176076
-0.0527673
-0.0178437
-0.0504719
-0.0165811
-0.0473534
-0.0141716
-0.0438501
-0.011181
-0.0409558
-0.00781551
-0.0394712
-0.00344916
-0.0395348
0.000591186
-0.0342115
0.00274976
-0.0259339
-0.00449388
-0.0175369
-0.0244806
-0.00731889
-0.0415447
-0.00112022
-0.0462429
0.00874757
-0.04866
0.0108399
-0.0419811
0.00433329
-0.0722845
-0.00154601
-0.0698893
0.00255973
-0.043571
0.00829772
-0.0241529
0.0114238
-0.0151691
0.0121591
-0.0188617
0.0202733
-0.0344112
0.0353507
-0.0579171
0.0511458
-0.0646769
0.0704748
-0.0735558
0.0981608
-0.0930741
0.119177
-0.108215
0.145809
-0.124197
0.169632
-0.116461
0.179362
-0.0980231
0.171068
-0.0619867
0.147029
0.0241547
0.107104
0.154346
0.0437356
0.362636
-0.0526092
0.543
-0.175223
0.693119
-0.293659
0.752729
-0.386598
0.686079
-0.436028
0.534798
-0.450293
0.356638
-0.476335
0.161524
-0.515602
-0.150907
-0.330717
-1.83423
0.340608
-3.58549
0.866823
-1.70764
1.01366
-0.340382
1.55424
-2.35607
2.35981
-4.35052
2.69566
-3.00218
1.81123
2.27709
0.439389
6.55726
-0.524055
6.57567
-1.08184
4.85962
-1.42466
2.7653
-1.57063
1.16007
-1.52073
-0.58589
-1.36831
-1.55204
-1.10458
-2.04027
-0.691432
-2.52837
-0.297922
-2.07775
-0.0149286
-1.3337
0.139525
-0.491344
0.21486
-0.0738895
0.330246
-0.452077
0.526171
-1.1285
0.629474
-0.854598
0.486772
0.494994
0.155131
1.67914
-0.13241
1.66453
-0.274191
0.830033
-0.29675
0.116489
-0.26056
-0.23822
-0.198272
-0.395798
-0.131874
-0.423261
-0.0904255
-0.316048
-0.0905664
-0.102468
-0.140143
0.165431
-0.223133
0.385472
-0.323274
0.488499
-0.414113
0.484871
-0.481548
0.365715
-0.51871
0.201635
-0.522821
0.0202821
-0.504007
-0.0977268
-0.471646
-0.170296
-0.434736
-0.198363
-0.406664
-0.151072
-0.382483
-0.142186
-0.374203
-0.0499088
-0.368024
-0.0449151
-0.373712
0.0227215
-0.380997
0.0244962
-0.395235
0.0600626
-0.407756
0.0529134
-0.433954
0.106678
-0.448192
0.0647472
-0.47106
0.123965
-0.501495
0.170396
-0.513787
0.0447388
-0.556833
0.284922
0.189412
-0.0360622
0.0015882
0.0438032
-0.0370037
0.00159034
-0.0402819
0.00144589
-0.0425872
0.00133286
-0.0433501
0.00134832
-0.0435456
0.00133289
-0.0442339
0.00111788
-0.0461056
0.000681652
-0.0491674
0.000241819
-0.0528383
-3.86784e-05
-0.0564291
-0.000283308
-0.059688
-0.000769265
-0.0629
-0.00173936
-0.0663617
-0.00335015
-0.06973
-0.0056042
-0.0719566
-0.00822577
-0.072266
-0.0109354
-0.0709496
-0.0136529
-0.0693107
-0.0164895
-0.0683672
-0.0192577
-0.0675912
-0.021389
-0.0657293
-0.0222406
-0.0626933
-0.0218367
-0.0588434
-0.0201666
-0.0552364
-0.017321
-0.0529504
-0.0128007
-0.0526718
-0.00846486
-0.0477098
-0.00503932
-0.0401637
-0.0105881
-0.0302869
-0.0269513
-0.0174467
-0.0436175
-0.010124
-0.0547894
0.00206305
-0.0623855
0.00119756
-0.0686987
-0.00119163
-0.0797898
-0.00421006
-0.0723454
0.000504089
-0.0407868
0.00649501
-0.0172784
0.00884813
-0.0120176
0.0112037
-0.0223994
0.0186544
-0.0418642
0.0304727
-0.0646546
0.0530571
-0.0820226
0.0774254
-0.0992451
0.0979449
-0.114289
0.124056
-0.13762
0.151046
-0.149435
0.176051
-0.139272
0.186454
-0.11239
0.178941
-0.0629939
0.155557
0.0415314
0.118385
0.19802
0.0547883
0.428111
-0.0433507
0.641203
-0.170939
0.811892
-0.296404
0.879311
-0.395314
0.797739
-0.447041
0.608315
-0.45876
0.400618
-0.473849
0.177124
-0.537944
-0.124564
-0.432722
-1.93651
0.260517
-4.22954
0.952868
-2.39233
1.22163
-0.686973
1.87197
-3.02625
2.72539
-5.16586
2.92366
-3.14358
1.76119
3.39726
0.294999
7.99657
-0.611562
7.50495
-1.15449
5.42934
-1.48704
3.07811
-1.64449
1.29897
-1.61377
-0.621214
-1.49123
-1.68809
-1.2788
-2.26063
-0.839175
-2.96948
-0.396255
-2.52583
-0.0520064
-1.68272
0.152903
-0.683288
0.262751
-0.171795
0.39681
-0.5789
0.598566
-1.32357
0.689587
-0.944126
0.519984
0.663734
0.153654
2.04106
-0.162671
1.98342
-0.318149
0.986243
-0.343355
0.136042
-0.305259
-0.283078
-0.24039
-0.464159
-0.172241
-0.489716
-0.132272
-0.354192
-0.136502
-0.097186
-0.194861
0.222765
-0.288573
0.479665
-0.401255
0.599556
-0.503923
0.587294
-0.581551
0.442222
-0.625513
0.243848
-0.632676
0.0255748
-0.613219
-0.118406
-0.577711
-0.2058
-0.53605
-0.240195
-0.503537
-0.18294
-0.474925
-0.17206
-0.463934
-0.0603477
-0.455459
-0.0532165
-0.46015
0.0282299
-0.467028
0.0318139
-0.481287
0.0738322
-0.493934
0.0661664
-0.520736
0.129854
-0.535294
0.0790065
-0.557825
0.149512
-0.587235
0.200015
-0.600473
0.0564106
-0.639853
0.322292
0.20648
-0.0381863
0.0021518
0.046586
-0.039457
0.00222714
-0.0426657
0.00222473
-0.0449807
0.00225021
-0.0458167
0.00232307
-0.0459604
0.00231847
-0.0463157
0.00215929
-0.0474929
0.00187871
-0.049516
0.00170828
-0.0519496
0.00184756
-0.0543678
0.00219055
-0.0567938
0.00239057
-0.059681
0.00211094
-0.0633926
0.00113805
-0.0676283
-0.000623306
-0.0714214
-0.00308065
-0.0740201
-0.00610728
-0.0755781
-0.0096656
-0.0770606
-0.0138087
-0.0790647
-0.018318
-0.0807487
-0.0226479
-0.0807899
-0.0261578
-0.0790245
-0.0285569
-0.0757724
-0.0293054
-0.072141
-0.0281383
-0.0696377
-0.0243714
-0.0691752
-0.0195812
-0.0649151
-0.0141814
-0.0581478
-0.0158533
-0.0472183
-0.026338
-0.0324623
-0.0398253
-0.0238391
-0.0543227
-0.0100728
-0.0632698
-0.0106139
-0.0754499
-0.00976771
-0.0746839
-0.00923883
-0.0620029
-0.00394899
-0.0314817
0.00160255
-0.0101357
0.00331489
-0.0108447
0.00505039
-0.0290156
0.0136703
-0.0526466
0.0295601
-0.079952
0.0503251
-0.0985021
0.0721852
-0.120058
0.0984607
-0.143715
0.122334
-0.166698
0.151853
-0.175509
0.178369
-0.162579
0.19038
-0.128174
0.185308
-0.0658697
0.164775
0.0561606
0.133068
0.23907
0.0721999
0.492046
-0.02573
0.739166
-0.157303
0.935091
-0.290473
1.01406
-0.397162
0.91881
-0.452794
0.686624
-0.462196
0.443953
-0.475585
0.191044
-0.547843
-0.0916822
-0.545393
-1.95162
0.142416
-4.867
1.02257
-3.24173
1.44523
-1.18568
2.21349
-3.81404
3.08455
-5.99782
3.09323
-3.09824
1.64709
4.78468
0.164871
9.45594
-0.657173
8.35703
-1.2121
6.01487
-1.53304
3.37939
-1.7003
1.44267
-1.68579
-0.642712
-1.59382
-1.79468
-1.24175
-2.62343
-1.0085
-3.20251
-0.52605
-3.01113