/*--------------------------------*- C++ -*----------------------------------*\
| =========                 |                                                 |
| \\      /  F ield         | OpenFOAM: The Open Source CFD Toolbox           |
|  \\    /   O peration     | Version:  2412                                  |
|   \\  /    A nd           | Website:  www.openfoam.com                      |
|    \\/     M anipulation  |                                                 |
\*---------------------------------------------------------------------------*/
FoamFile
{
    version     2.0;
    format      ascii;
    arch        "LSB;label=32;scalar=64";
    class       volVectorField;
    location    "0.675";
    object      ddtCorrDdt0(U);
}
// * * * * * * * * * * * * * * * * * * * * * * * * * * * * * * * * * * * * * //

dimensions      [0 1 -2 0 0 0 0];

internalField   nonuniform List<vector> 
12600
(
(-0.02074 2.18682e-21 -0.0551008)
(-0.048767 4.30071e-21 -0.00782322)
(0.0106335 4.0448e-21 0.00677943)
(0.0219476 0 0.00473452)
(0.018801 2.79496e-21 0.0024521)
(0.0214357 2.30786e-21 0.0014863)
(0.0264053 0 0.00124171)
(0.0294984 0 -0.000465862)
(0.0304826 -2.47346e-21 -0.00172522)
(0.0304295 0 -0.00257861)
(0.0298601 -5.82782e-22 -0.00314322)
(0.028916 -1.35449e-21 -0.00341158)
(0.0276086 2.03687e-21 -0.00340336)
(0.0260546 0 -0.00320516)
(0.02447 3.03429e-21 -0.00292752)
(0.0230282 0 -0.00265594)
(0.0217715 -1.47261e-20 -0.00243077)
(0.0206198 0 -0.0022498)
(0.0194185 7.98119e-21 -0.00208176)
(0.0179897 8.2046e-21 -0.00188639)
(0.0161919 -8.34254e-21 -0.00163601)
(0.0139793 -2.9657e-23 -0.00132887)
(0.0114267 0 -0.000987735)
(0.00870001 1.70589e-20 -0.000646463)
(0.00598669 0 -0.00033345)
(0.00342563 0 -6.0456e-05)
(0.00106826 1.68843e-20 0.00017896)
(-0.00111658 0 0.000402829)
(-0.00320817 1.85117e-23 0.000631576)
(-0.00529575 -1.61024e-20 0.000881415)
(-0.00745241 -1.57053e-20 0.0011617)
(-0.00972213 -1.52288e-20 0.0014753)
(-0.0121171 1.46767e-20 0.00182035)
(-0.0146229 2.80949e-20 0.00219284)
(-0.0172086 2.67035e-20 0.00258807)
(-0.0198388 -2.51649e-20 0.00300258)
(-0.0224829 0 0.00343371)
(-0.0251208 2.16729e-20 0.00388072)
(-0.0277313 0 0.00434028)
(-0.0302852 -1.75633e-20 0.0048083)
(-0.0327262 0 0.00527288)
(-0.0349821 -1.02068e-22 0.005723)
(-0.0369523 0 0.00613786)
(-0.038546 -1.4184e-22 0.00650559)
(-0.0396559 -8.04032e-21 0.0068018)
(-0.0402214 1.12276e-21 0.0070217)
(-0.0401634 5.28957e-21 0.00713938)
(-0.0394856 0 0.00716213)
(-0.0381529 0 0.0070618)
(-0.0362568 2.76489e-20 0.00686439)
(-0.0338152 6.54196e-20 0.00654078)
(-0.0310251 8.20737e-20 0.00614557)
(-0.0279543 -3.07479e-22 0.00565004)
(-0.0248964 1.02936e-19 0.0051434)
(-0.0219235 0 0.00458948)
(-0.019363 -1.15315e-19 0.0041066)
(-0.0172129 -1.06108e-19 0.00363365)
(-0.0157496 -1.1695e-19 0.00330564)
(-0.0148553 0 0.00302238)
(-0.0147053 0 0.002928)
(-0.0151042 0 0.0028812)
(-0.0160728 1.91357e-19 0.00302694)
(-0.0174198 0 0.00318699)
(-0.0189277 0 0.00349568)
(-0.0206039 -1.92722e-19 0.0037613)
(-0.0219294 0 0.00410308)
(-0.0234172 0 0.00436037)
(-0.024135 0 0.00463052)
(-0.0253807 1.3829e-19 0.00483068)
(-0.0255608 -2.15387e-19 0.00500939)
(-0.0268833 -1.49595e-19 0.00518605)
(-0.0268128 -1.08617e-23 0.00531682)
(-0.0284784 1.74249e-19 0.00552823)
(-0.0283112 0 0.00564652)
(-0.0303117 -2.06152e-19 0.00591783)
(-0.0301198 0 0.00602522)
(-0.0321365 0 0.00632253)
(-0.0320829 0 0.00640539)
(-0.0336574 4.55815e-22 0.00668789)
(-0.0341008 2.56796e-19 0.00675954)
(-0.03482 -6.01582e-19 0.00699464)
(-0.0366625 -3.72197e-19 0.00712021)
(-0.0360826 5.70065e-19 0.00733562)
(-0.0406551 0 0.00765653)
(-0.0388342 0 0.00786136)
(-0.0455085 4.689e-19 0.00852106)
(-0.0438358 1.79837e-19 0.00866227)
(-0.0517041 -9.79633e-20 0.00947618)
(-0.0467416 5.43927e-19 0.00974434)
(-0.0584779 0 0.0104311)
(-0.0471877 -2.34102e-18 0.00999957)
(-0.0507206 -1.65057e-18 0.0109944)
(-0.0581445 -2.96171e-18 0.00862156)
(-0.0298068 -6.07593e-18 0.00959937)
(-0.0625416 0 0.0088006)
(-0.0403198 0 0.00736414)
(-0.0231113 0 0.00942593)
(-0.0840137 0 0.00909674)
(0.00134143 0 0.00713353)
(-0.0715913 0 0.0102429)
(0.0217625 -4.59403e-17 -0.00909403)
(-0.11015 1.37803e-16 0.0368284)
(0.00766432 -1.08365e-16 -0.0166937)
(0.312617 0 -0.0505573)
(-1.53292 0 0.302618)
(0.318361 0 -0.107324)
(2.95248 1.60822e-16 -0.510307)
(-4.31659 2.72953e-16 0.842228)
(0.192252 3.7038e-16 0.0081086)
(7.93602 0 -1.48439)
(-4.57803 -8.19153e-17 0.902909)
(-10.4991 0 1.97074)
(4.09761 1.83955e-17 -0.908959)
(10.2381 -1.96424e-16 -1.89936)
(-0.595206 -1.49042e-16 0.0292588)
(-6.12131 6.66812e-17 1.17049)
(-4.82093 3.16007e-17 0.893927)
(-3.23912 1.35894e-20 0.609521)
(-0.65897 5.80133e-17 0.101605)
(0.599242 0 -0.0959109)
(-0.116451 -2.20713e-21 -0.107792)
(-0.130533 0 -0.032908)
(-0.0908862 -4.09311e-21 0.00691992)
(-0.0600318 0 0.0118876)
(-0.0385943 -2.83206e-21 0.00875793)
(-0.0157226 -4.4754e-21 0.00579361)
(0.00416999 -1.7343e-21 0.00420486)
(0.0178096 0 0.0016236)
(0.0265081 -8.89662e-23 -0.000528596)
(0.0315451 -4.44386e-22 -0.00232097)
(0.0341964 -4.03578e-22 -0.00362186)
(0.0348871 -1.18696e-21 -0.0041942)
(0.0337346 1.89612e-21 -0.00409335)
(0.031188 -2.50876e-21 -0.00363507)
(0.0280349 -6.08856e-21 -0.00314411)
(0.0250212 0 -0.00279038)
(0.0225518 7.99984e-23 -0.0025799)
(0.0206264 -7.76609e-21 -0.00241613)
(0.0189307 -8.09729e-21 -0.00216929)
(0.0170111 0 -0.0017418)
(0.0144929 0 -0.00111665)
(0.0112628 -8.53306e-21 -0.00036475)
(0.0075164 0 0.000393405)
(0.00364334 -8.63685e-21 0.00104624)
(2.98094e-05 1.72261e-20 0.00153631)
(-0.00310745 0 0.00187337)
(-0.00577917 -1.70502e-20 0.00211602)
(-0.00817159 0 0.00233801)
(-0.0105406 1.66368e-20 0.00260032)
(-0.0131162 3.25911e-20 0.0029392)
(-0.0160493 3.17819e-20 0.00336728)
(-0.0193975 1.54143e-20 0.0038802)
(-0.0231391 -1.48513e-20 0.00446533)
(-0.0272012 -5.6825e-20 0.00510914)
(-0.031497 -5.40033e-20 0.00580261)
(-0.0359531 0 0.00654346)
(-0.0405353 0 0.00733684)
(-0.0452402 2.83098e-23 0.00819065)
(-0.0500782 0 0.00910823)
(-0.0550252 1.77308e-20 0.0100827)
(-0.0600161 0 0.0110939)
(-0.0649184 2.56462e-20 0.0121127)
(-0.0695785 0 0.0131016)
(-0.0738089 1.41785e-20 0.0140273)
(-0.0774608 0 0.0148522)
(-0.0803739 -1.13056e-21 0.0155526)
(-0.0824639 0 0.0160934)
(-0.0836172 0 0.0164614)
(-0.0838262 -1.88319e-20 0.0166214)
(-0.0830232 0 0.0165769)
(-0.0813091 0 0.0163002)
(-0.0786921 0 0.0158306)
(-0.0754459 -8.78795e-20 0.015163)
(-0.0716623 -2.05998e-19 0.0143851)
(-0.0677899 0 0.0135098)
(-0.0639044 0 0.0126595)
(-0.0605503 1.0581e-19 0.0118395)
(-0.057628 1.16944e-19 0.0111777)
(-0.055744 0 0.0106531)
(-0.0545217 0 0.0103788)
(-0.0546843 0 0.0103063)
(-0.0554353 0 0.0105027)
(-0.0576524 1.2933e-19 0.0108937)
(-0.059948 -1.61524e-19 0.011467)
(-0.0635554 1.91762e-19 0.0121676)
(-0.0664751 0 0.0128958)
(-0.0706496 0 0.0136987)
(-0.073477 0 0.0143831)
(-0.077842 -1.42593e-22 0.0151728)
(-0.0804401 2.13327e-19 0.015748)
(-0.0850152 1.48029e-19 0.0165333)
(-0.0875686 -3.57393e-19 0.0170499)
(-0.0923788 7.75721e-23 0.0178932)
(-0.0951044 1.23399e-19 0.0184262)
(-0.100093 2.03219e-19 0.0193675)
(-0.103316 0 0.0199599)
(-0.108015 0 0.0209108)
(-0.112081 0 0.02157)
(-0.115788 -5.4801e-19 0.0224042)
(-0.121099 0 0.0231727)
(-0.123185 0 0.0237888)
(-0.130769 3.64275e-19 0.0248061)
(-0.130735 -5.57338e-19 0.0251909)
(-0.141985 0 0.0267181)
(-0.140045 0 0.0268634)
(-0.153982 0 0.0290542)
(-0.151547 -1.76238e-19 0.0289858)
(-0.166597 -9.88918e-22 0.0313639)
(-0.160291 5.2822e-19 0.0313381)
(-0.178389 4.04387e-19 0.0336991)
(-0.165152 2.2696e-18 0.0321771)
(-0.173338 -1.6001e-18 0.0348122)
(-0.175643 5.73168e-18 0.0307671)
(-0.152286 0 0.0315306)
(-0.171595 0 0.0303689)
(-0.157909 0 0.0275321)
(-0.120416 0 0.0280497)
(-0.194623 2.70029e-17 0.031624)
(-0.0944628 0 0.0228493)
(-0.155983 0 0.0277356)
(0.0610097 -4.41227e-17 -0.0163858)
(-0.442352 -6.60115e-17 0.101427)
(0.220039 2.07417e-16 -0.061724)
(0.606628 -2.10059e-17 -0.0894188)
(-4.30442 0 0.849614)
(1.54529 0 -0.413987)
(7.56321 0 -1.35226)
(-12.2932 -1.30066e-16 2.46207)
(1.67603 -3.52492e-16 -0.592382)
(21.6769 0 -4.07492)
(-15.0102 1.55946e-16 3.27492)
(-28.4786 2.14102e-16 5.37093)
(13.8101 -3.44171e-17 -3.14053)
(27.8348 0 -5.23421)
(-3.45259 0 1.03006)
(-17.7476 6.30942e-17 3.48007)
(-13.5396 0 2.53843)
(-9.03888 1.06545e-17 1.68204)
(-1.5319 -5.49303e-17 0.22314)
(1.68407 0 -0.320093)
(-0.149255 0 -0.0791163)
(-0.167753 0 -0.0296171)
(-0.156987 -3.01307e-21 0.0071679)
(-0.138675 0 0.0142336)
(-0.116332 0 0.0108925)
(-0.087931 2.19661e-21 0.00743059)
(-0.0598137 1.64257e-21 0.00634089)
(-0.03708 0 0.00674297)
(-0.0206276 -2.00282e-23 0.00649311)
(-0.00929533 4.21143e-22 0.00528005)
(-0.00154911 7.12428e-22 0.00407831)
(0.00314691 1.12455e-21 0.00370382)
(0.00489092 -5.39534e-23 0.00407958)
(0.00428099 2.37719e-21 0.004574)
(0.00250417 2.85182e-21 0.00467357)
(0.00075528 -3.19432e-21 0.00428801)
(-0.00028424 6.97909e-21 0.00365401)
(-0.000585077 7.35942e-21 0.00312131)
(-0.000624394 0 0.00298155)
(-0.00109297 0 0.00335465)
(-0.00254206 -7.93116e-21 0.00414438)
(-0.00510354 -8.03632e-21 0.00509145)
(-0.00843425 0 0.00590245)
(-0.0119155 0 0.006379)
(-0.0149733 -1.63228e-20 0.00648037)
(-0.0173262 0 0.00630336)
(-0.0190464 3.22982e-20 0.00600861)
(-0.0204521 -1.59653e-20 0.00574233)
(-0.0219353 0 0.00559357)
(-0.0238215 -1.54275e-20 0.00559196)
(-0.0263021 -1.50449e-20 0.00572689)
(-0.0294254 0 0.00596796)
(-0.0331303 1.40492e-20 0.00628413)
(-0.0372946 2.69045e-20 0.00665411)
(-0.0417935 -1.62832e-24 0.00707474)
(-0.0465374 0 0.00755849)
(-0.0515064 0 0.00813498)
(-0.0567263 -2.07616e-20 0.00883162)
(-0.0622447 0 0.00966969)
(-0.0680514 0 0.0106419)
(-0.0740836 0 0.011732)
(-0.0801739 0 0.0128962)
(-0.0861467 0 0.0141061)
(-0.0917634 0 0.0153117)
(-0.0968748 0 0.0165005)
(-0.101276 1.56961e-21 0.0176222)
(-0.104915 4.30952e-21 0.0186785)
(-0.107618 0 0.0196015)
(-0.109431 1.78168e-20 0.0204023)
(-0.110179 0 0.0209889)
(-0.110045 0 0.0214018)
(-0.108874 -7.66498e-20 0.0215413)
(-0.107093 0 0.0215155)
(-0.104575 9.72033e-20 0.0212266)
(-0.102025 -9.6011e-20 0.0208677)
(-0.099213 0 0.0203204)
(-0.0970667 -1.00014e-19 0.019858)
(-0.0950567 0 0.0193032)
(-0.0943504 0 0.0190127)
(-0.0940004 0 0.0187177)
(-0.0955127 -1.57691e-19 0.0188618)
(-0.0973086 -1.80919e-19 0.0190231)
(-0.101256 1.66013e-22 0.0197216)
(-0.104897 3.05338e-19 0.020334)
(-0.110686 1.50948e-22 0.021499)
(-0.115273 0 0.022395)
(-0.122082 0 0.0238436)
(-0.126933 2.26649e-19 0.0248438)
(-0.134385 1.54295e-23 0.026425)
(-0.139407 0 0.0274303)
(-0.147418 0 0.0290526)
(-0.152794 1.68476e-19 0.0300709)
(-0.161199 1.21966e-22 0.0317077)
(-0.167196 -1.79937e-22 0.0328463)
(-0.175841 0 0.0345244)
(-0.182962 0 0.0359075)
(-0.191168 4.52007e-19 0.0374984)
(-0.199905 8.20778e-20 0.0391916)
(-0.206665 0 0.0404837)
(-0.217472 0 0.0425427)
(-0.221865 0 0.0433757)
(-0.235869 0 0.0459444)
(-0.237183 0 0.0462269)
(-0.25581 0 0.0495119)
(-0.254138 0 0.0492397)
(-0.276067 0 0.0531771)
(-0.272698 1.66089e-19 0.0525568)
(-0.295658 4.58297e-20 0.0565246)
(-0.287411 -4.96459e-19 0.0557023)
(-0.312913 -3.79993e-19 0.0597554)
(-0.29665 -2.13445e-18 0.057616)
(-0.311591 1.50296e-18 0.0611815)
(-0.308 -2.69285e-18 0.0578608)
(-0.291819 0 0.0577513)
(-0.299229 0 0.0556234)
(-0.294979 0 0.0542008)
(-0.239772 0 0.0486968)
(-0.328355 -2.53332e-17 0.058648)
(-0.212256 0 0.043623)
(-0.263466 0 0.0442769)
(0.0542356 4.13706e-17 -0.00825215)
(-0.78721 0 0.160488)
(0.421017 -9.72062e-17 -0.117009)
(0.705022 1.96848e-17 -0.0393757)
(-6.77624 0 1.30286)
(3.07785 0 -0.886923)
(11.22 0 -1.84155)
(-19.7082 -1.22442e-16 3.96893)
(4.24323 0 -1.70599)
(33.1899 2.80949e-16 -5.96933)
(-26.4628 -7.43768e-19 6.33709)
(-43.3584 -2.00377e-16 7.71608)
(24.5264 3.12105e-17 -5.96568)
(42.6287 0 -7.7244)
(-7.98817 1.31663e-16 2.16211)
(-28.7764 -5.9017e-17 5.69197)
(-21.4701 2.80845e-17 3.91588)
(-14.1644 0 2.49296)
(-1.97622 5.13618e-17 0.171222)
(2.81874 0 -0.575945)
(-0.153455 0 -0.0453809)
(-0.169476 0 -0.0187704)
(-0.170001 2.84832e-21 0.00815745)
(-0.163729 0 0.0135521)
(-0.15285 -2.19818e-21 0.00827697)
(-0.135241 3.76327e-21 0.00418574)
(-0.113169 0 0.00526487)
(-0.0914364 -2.03785e-21 0.00906646)
(-0.0731134 1.24815e-21 0.0115859)
(-0.0586309 4.25599e-22 0.0118525)
(-0.0472566 -3.12129e-22 0.0114232)
(-0.0388533 9.87422e-22 0.0117695)
(-0.0337475 -1.64799e-21 0.0128204)
(-0.0316344 4.36512e-21 0.0135582)
(-0.0312564 0 0.0132495)
(-0.0311044 6.02916e-21 0.011951)
(-0.0302178 0 0.0102559)
(-0.0284738 0 0.00885856)
(-0.0264366 0 0.00825374)
(-0.0249862 -7.35862e-21 0.00857643)
(-0.0248585 7.52316e-24 0.00957717)
(-0.0262619 4.0049e-24 0.0107602)
(-0.0287709 -7.66946e-21 0.0116295)
(-0.0315702 0 0.011902)
(-0.0338892 0 0.0115812)
(-0.0353509 0 0.0108832)
(-0.0360561 -3.05267e-20 0.0100886)
(-0.0364257 1.32631e-23 0.0094126)
(-0.0369604 0 0.00895419)
(-0.0380564 0 0.0087145)
(-0.0399266 0 0.0086425)
(-0.0426016 0 0.00867293)
(-0.0459823 -2.65567e-20 0.00875563)
(-0.0499061 0 0.0088669)
(-0.0542231 2.41784e-20 0.00901767)
(-0.0588387 0 0.00924309)
(-0.0637529 0 0.00960159)
(-0.0690192 1.96534e-20 0.0101394)
(-0.0747165 0 0.0108904)
(-0.0808414 0 0.0118396)
(-0.0873311 -1.39569e-20 0.0129685)
(-0.0939864 2.32937e-20 0.0142158)
(-0.100621 0 0.0155624)
(-0.10696 1.31831e-20 0.0169446)
(-0.112874 0 0.0183781)
(-0.118128 -3.13338e-21 0.0197895)
(-0.122727 -1.92138e-22 0.0212196)
(-0.126449 0 0.0225484)
(-0.129417 0 0.0238377)
(-0.131363 -2.39021e-20 0.0249042)
(-0.132576 -5.67988e-20 0.0258666)
(-0.132753 1.44252e-19 0.0264907)
(-0.132489 0 0.0270121)
(-0.131435 9.09714e-20 0.0271452)
(-0.130555 9.06307e-20 0.0272789)
(-0.129291 1.0216e-19 0.0270398)
(-0.128945 9.39428e-20 0.0269878)
(-0.128523 0 0.026614)
(-0.129738 0 0.0266794)
(-0.131024 1.94785e-19 0.026491)
(-0.134653 2.97604e-19 0.027019)
(-0.138203 1.70637e-19 0.0272919)
(-0.144541 2.70053e-22 0.0284717)
(-0.15008 -1.44091e-19 0.0292517)
(-0.158547 -8.55082e-20 0.0310279)
(-0.165181 0 0.0321806)
(-0.174986 0 0.0343786)
(-0.182111 -2.1359e-19 0.0357439)
(-0.192936 -2.43748e-19 0.0381784)
(-0.200555 0 0.0396415)
(-0.212286 -1.31524e-19 0.0421354)
(-0.220643 -1.58297e-19 0.0436887)
(-0.232993 -1.52983e-19 0.0461385)
(-0.24246 -2.18526e-19 0.0479388)
(-0.255201 0 0.0503538)
(-0.266461 0 0.0526012)
(-0.278701 -4.25349e-19 0.0548104)
(-0.2924 -1.54437e-19 0.0576274)
(-0.302809 4.87991e-19 0.0593492)
(-0.319496 0 0.0628033)
(-0.326847 0 0.0638397)
(-0.347808 0 0.0680712)
(-0.351115 0 0.0683128)
(-0.377865 0 0.0734605)
(-0.376992 0 0.0729476)
(-0.40794 -4.01121e-19 0.0787688)
(-0.403974 -4.24435e-22 0.0777775)
(-0.436263 -4.61774e-20 0.0835543)
(-0.426135 0 0.0822799)
(-0.460933 -3.59415e-19 0.0878874)
(-0.441415 1.00248e-18 0.0856578)
(-0.465289 0 0.0901004)
(-0.455835 -2.53285e-18 0.086828)
(-0.448839 5.18221e-18 0.0875491)
(-0.445114 0 0.082834)
(-0.452576 0 0.0845535)
(-0.380813 0 0.0742331)
(-0.486508 -2.37727e-17 0.0886693)
(-0.354473 0 0.0702934)
(-0.396878 0 0.0642368)
(-0.00413905 3.88769e-17 0.0109124)
(-1.14308 5.80636e-17 0.223589)
(0.594879 0 -0.172345)
(0.611623 0 0.0720338)
(-8.89922 0 1.68484)
(4.81976 0 -1.4857)
(13.8985 0 -2.04627)
(-26.3455 -2.92294e-19 5.36767)
(7.71332 0 -2.96769)
(42.2312 -2.62903e-16 -7.30738)
(-38.483 -6.77246e-17 9.65025)
(-54.8685 0 9.19323)
(35.6808 -5.74216e-19 -9.14229)
(54.276 0 -9.53892)
(-13.7682 -1.03527e-19 4.53176)
(-38.8892 0 7.78233)
(-28.5302 -2.62582e-17 5.08904)
(-18.545 0 3.1056)
(-2.01609 4.81944e-17 -0.0293614)
(3.97313 0 -0.845856)
(-0.150278 0 -0.029107)
(-0.159152 0 -0.0132343)
(-0.158382 0 0.00790037)
(-0.154636 0 0.0135689)
(-0.150732 2.07493e-21 0.00748024)
(-0.144968 -1.00777e-22 0.00191486)
(-0.135394 0 0.00278065)
(-0.122786 1.92354e-21 0.0077777)
(-0.109545 0 0.0121088)
(-0.097188 -7.57258e-22 0.0138463)
(-0.0859118 0 0.0144941)
(-0.0761162 -9.32137e-22 0.0160095)
(-0.0688376 0 0.0183436)
(-0.064597 -4.12129e-21 0.0199777)
(-0.0625871 2.48893e-21 0.0197932)
(-0.0612337 -5.67344e-21 0.017938)
(-0.0592718 6.17269e-21 0.0154098)
(-0.0563195 6.52725e-21 0.0133194)
(-0.0528454 0 0.012417)
(-0.049813 6.94853e-21 0.0128783)
(-0.0481702 7.07661e-21 0.0142974)
(-0.0483439 1.43491e-20 0.0159157)
(-0.0499963 7.24202e-21 0.0170032)
(-0.0522146 0 0.0171799)
(-0.0540241 0 0.0165082)
(-0.0548834 0 0.015354)
(-0.054856 1.44078e-20 0.0141431)
(-0.0544328 1.42438e-20 0.0131661)
(-0.0542168 0 0.0125216)
(-0.0546784 0 0.012165)
(-0.056058 -1.33877e-20 0.0119905)
(-0.058374 0 0.0118901)
(-0.0614959 1.30768e-23 0.0117936)
(-0.0652266 2.39725e-20 0.0116792)
(-0.0693953 -2.27996e-20 0.0115791)
(-0.0739027 0 0.0115574)
(-0.0787658 0 0.0117052)
(-0.0840589 -1.85492e-20 0.0120872)
(-0.0898866 0 0.0127452)
(-0.0962471 0 0.0136514)
(-0.103078 1.31706e-20 0.0147806)
(-0.110149 -2.19801e-20 0.0160529)
(-0.117269 0 0.0174608)
(-0.124134 -1.2438e-20 0.0189317)
(-0.13064 0 0.0205147)
(-0.13653 1.55696e-21 0.0221185)
(-0.141866 -3.65903e-21 0.0238267)
(-0.146383 0 0.0254712)
(-0.150286 -1.52259e-20 0.0271686)
(-0.153211 2.2541e-20 0.0286489)
(-0.155569 1.0667e-19 0.0301149)
(-0.156897 -6.77708e-20 0.0312025)
(-0.157979 7.22129e-20 0.03228)
(-0.158231 -4.69199e-22 0.0328719)
(-0.1589 0 0.0335643)
(-0.15908 -9.62897e-20 0.0337172)
(-0.16048 -8.85358e-20 0.034178)
(-0.161616 9.77669e-20 0.0340864)
(-0.164787 -8.27388e-20 0.0346153)
(-0.167764 -1.83515e-19 0.0346203)
(-0.173629 -1.40227e-19 0.0356155)
(-0.179053 1.60962e-19 0.0360447)
(-0.18796 -1.08886e-19 0.0377458)
(-0.195553 0 0.0386883)
(-0.206924 0 0.0410823)
(-0.215787 -1.15275e-19 0.0424586)
(-0.228858 0 0.0454118)
(-0.238449 0 0.0471144)
(-0.252945 1.148e-19 0.0504383)
(-0.263348 0 0.0523594)
(-0.279124 1.23744e-19 0.0558065)
(-0.290647 2.97617e-19 0.0579285)
(-0.307327 0 0.0613128)
(-0.320479 1.02674e-19 0.0638324)
(-0.337775 0 0.0671228)
(-0.353424 0 0.0702969)
(-0.370242 4.00987e-19 0.073267)
(-0.389206 7.25716e-20 0.0772825)
(-0.40389 3.55338e-22 0.0795836)
(-0.426867 0 0.0845421)
(-0.437879 0 0.0859394)
(-0.466359 0 0.0919845)
(-0.472401 4.6427e-19 0.0923404)
(-0.508042 3.11804e-19 0.0995413)
(-0.508657 0 0.0988994)
(-0.549693 7.51012e-19 0.106826)
(-0.545685 -7.27386e-20 0.105493)
(-0.588819 8.84308e-20 0.11331)
(-0.577151 -4.37793e-19 0.111589)
(-0.623231 6.75563e-19 0.119012)
(-0.600565 0 0.116526)
(-0.635696 0 0.122358)
(-0.620452 2.37496e-18 0.118836)
(-0.625222 -4.8584e-18 0.120955)
(-0.610708 -2.36422e-18 0.114249)
(-0.632828 0 0.119457)
(-0.545603 0 0.104881)
(-0.671162 2.22736e-17 0.124221)
(-0.523674 -1.51812e-17 0.101333)
(-0.560457 0 0.0880514)
(-0.116532 -3.64091e-17 0.0445634)
(-1.51113 -5.43701e-17 0.28561)
(0.723246 0 -0.225518)
(0.347831 0 0.256841)
(-10.657 0 1.96308)
(6.64613 0 -2.17202)
(15.6375 0 -1.94905)
(-32.0593 1.07506e-16 6.56421)
(11.6994 0 -4.7193)
(48.7518 0 -7.91991)
(-50.4726 0 13.2731)
(-62.9761 1.76488e-16 9.67129)
(46.6409 -1.28742e-17 -12.6098)
(62.6698 0 -10.4545)
(-20.8672 -1.15015e-16 6.15003)
(-47.8643 0 9.63661)
(-34.6928 -2.46478e-17 5.99657)
(-22.1538 0 3.4686)
(-1.69017 -4.50395e-17 -0.366694)
(5.11087 0 -1.12975)
(-0.147035 -2.41072e-21 -0.0195028)
(-0.149202 -2.5609e-21 -0.00835952)
(-0.144451 2.43591e-21 0.00810703)
(-0.139059 2.07313e-21 0.0140768)
(-0.136064 0 0.00930274)
(-0.135692 -1.5369e-21 0.00327169)
(-0.134945 0 0.00263745)
(-0.131461 1.5564e-21 0.00685474)
(-0.12568 8.90689e-22 0.0113527)
(-0.118902 5.94448e-22 0.0135564)
(-0.111462 3.36874e-22 0.0146632)
(-0.103568 -9.03639e-22 0.0170157)
(-0.0964457 0 0.0207408)
(-0.0914907 0 0.0237771)
(-0.0888391 -2.34649e-21 0.0243359)
(-0.0873095 1.11527e-24 0.0224162)
(-0.0854819 3.46768e-24 0.0193572)
(-0.0825908 6.3597e-24 0.0167315)
(-0.0787614 0 0.0156201)
(-0.0748268 0 0.0163126)
(-0.0718919 0 0.0182914)
(-0.0707449 -1.35394e-20 0.0205306)
(-0.0713921 -6.84631e-21 0.0220219)
(-0.0730309 0 0.0222404)
(-0.0745307 0 0.0212932)
(-0.0750967 -1.37209e-20 0.0197204)
(-0.0746377 0 0.0181297)
(-0.0736484 0 0.0169093)
(-0.0728259 0 0.0161567)
(-0.0727363 0 0.0157687)
(-0.0736748 9.44428e-24 0.0155713)
(-0.0756703 0 0.0154055)
(-0.0785756 1.00702e-23 0.0151796)
(-0.0821653 -2.25977e-20 0.0148766)
(-0.0862472 1.60456e-23 0.014555)
(-0.0907102 0 0.0143131)
(-0.0955793 0 0.0142776)
(-0.100941 0 0.0145314)
(-0.106923 0 0.0151218)
(-0.113524 0 0.0160031)
(-0.120685 0 0.0171404)
(-0.128148 0 0.0184337)
(-0.135722 1.66141e-20 0.0198886)
(-0.143068 1.18105e-20 0.0214263)
(-0.150119 0 0.0231325)
(-0.156587 1.66806e-21 0.0248997)
(-0.162605 0 0.0268562)
(-0.167851 0 0.0287858)
(-0.172629 2.85282e-20 0.030861)
(-0.176466 0 0.0327253)
(-0.17991 -5.00164e-20 0.034669)
(-0.182322 0 0.0361984)
(-0.184695 -1.35586e-19 0.0378193)
(-0.186186 -4.77029e-22 0.0388645)
(-0.188355 0 0.0401226)
(-0.189914 0 0.0406798)
(-0.193027 0 0.041679)
(-0.195674 -1.83739e-19 0.0418965)
(-0.200806 1.55644e-19 0.0429298)
(-0.205458 1.72215e-19 0.0431618)
(-0.213608 1.32198e-19 0.0446702)
(-0.220917 -3.02808e-19 0.0452815)
(-0.232486 -1.03101e-19 0.0475426)
(-0.242176 0 0.0486565)
(-0.2566 0 0.0517001)
(-0.267776 -8.70347e-23 0.0532975)
(-0.284328 0 0.0570416)
(-0.296508 0 0.0590765)
(-0.314951 1.08904e-19 0.0633381)
(-0.328282 0 0.0657168)
(-0.348443 0 0.0701864)
(-0.363303 -2.79312e-19 0.0728899)
(-0.384735 1.35666e-19 0.0773057)
(-0.401785 0 0.0805773)
(-0.424148 0 0.0848611)
(-0.444448 0 0.089005)
(-0.466449 -3.76588e-19 0.0928639)
(-0.491004 0 0.0981297)
(-0.510669 -8.61795e-19 0.101143)
(-0.540373 -1.96262e-19 0.10768)
(-0.555847 0 0.109578)
(-0.59244 0 0.117542)
(-0.60206 -4.35664e-19 0.118155)
(-0.647391 -1.27359e-21 0.127553)
(-0.650298 -2.98894e-19 0.126912)
(-0.70252 -3.51255e-19 0.137146)
(-0.699156 -6.65774e-20 0.135577)
(-0.754682 -4.22891e-20 0.145701)
(-0.741955 4.10472e-19 0.143648)
(-0.80136 1.05401e-21 0.153176)
(-0.775746 0 0.150606)
(-0.824691 1.24767e-18 0.158018)
(-0.803791 0 0.154284)
(-0.823219 0 0.158187)
(-0.798405 2.21483e-18 0.149779)
(-0.838497 0 0.15889)
(-0.736726 0 0.140462)
(-0.885325 0 0.16541)
(-0.722484 1.42144e-17 0.137348)
(-0.758809 0 0.117442)
(-0.285515 -3.41446e-17 0.091835)
(-1.89229 0 0.346656)
(0.788573 0 -0.26873)
(-0.0631189 0 0.497699)
(-12.0469 0 2.14295)
(8.41909 0 -2.91291)
(16.5161 1.16924e-16 -1.56407)
(-36.7373 1.0097e-16 7.54887)
(15.8873 2.71138e-16 -6.6665)
(52.7858 0 -7.8116)
(-61.8369 0 17.045)
(-67.8487 -3.30487e-16 9.20753)
(56.809 0 -16.2164)
(67.6396 -1.44077e-16 -10.4627)
(-28.4282 0 9.64522)
(-55.3922 -4.78797e-17 11.219)
(-39.9458 2.3033e-17 6.65839)
(-24.98 0 3.59296)
(-1.04744 -4.22456e-17 -0.834263)
(6.19871 0 -1.41192)
(-0.143595 2.27024e-21 -0.0113963)
(-0.141786 4.72092e-21 -0.00331807)
(-0.135178 -2.29449e-21 0.00859401)
(-0.128901 -6.93516e-23 0.0142368)
(-0.124715 1.56375e-21 0.0117362)
(-0.124708 0 0.00685161)
(-0.126961 0 0.00522314)
(-0.128208 -1.46557e-21 0.00790582)
(-0.12755 -1.56295e-21 0.0116671)
(-0.125841 -9.41247e-23 0.0135371)
(-0.123281 -3.17168e-22 0.0143093)
(-0.119406 8.50796e-22 0.0166221)
(-0.114707 -1.37956e-21 0.0211248)
(-0.11074 0 0.0255262)
(-0.108564 0 0.0272367)
(-0.107808 2.51413e-21 0.0257513)
(-0.107256 -1.098e-20 0.0225061)
(-0.105821 -1.16216e-20 0.0194711)
(-0.103079 0 0.0181131)
(-0.0994084 0 0.0189535)
(-0.0958211 0 0.0214826)
(-0.0934537 -1.71579e-23 0.0244603)
(-0.0928985 1.29127e-20 0.0265606)
(-0.0937977 -6.50661e-21 0.0270215)
(-0.0950629 -1.30221e-20 0.0259241)
(-0.0956161 2.58803e-20 0.0239793)
(-0.0950577 -1.28393e-20 0.0220216)
(-0.0937571 -1.26676e-20 0.0205805)
(-0.0924617 -1.24498e-20 0.0197669)
(-0.0918522 0 0.0194112)
(-0.0923212 1.18742e-20 0.0192576)
(-0.0939483 -1.15092e-20 0.0190862)
(-0.0965983 1.10991e-20 0.0187794)
(-0.10003 2.12452e-20 0.0183258)
(-0.104029 4.04199e-20 0.0178134)
(-0.10846 0 0.017378)
(-0.113344 0 0.0171852)
(-0.11877 1.64111e-20 0.0173371)
(-0.124888 0 0.0178851)
(-0.1317 -1.33269e-20 0.0187625)
(-0.139165 -1.16417e-20 0.0199218)
(-0.146993 0 0.0212408)
(-0.155002 -3.12343e-20 0.0227393)
(-0.16281 -1.11144e-20 0.0243333)
(-0.17039 0 0.0261482)
(-0.177414 -1.56958e-21 0.0280609)
(-0.184097 2.96048e-21 0.0302464)
(-0.190048 0 0.0324387)
(-0.195689 -2.65783e-20 0.0348682)
(-0.20042 1.9407e-20 0.0370901)
(-0.204952 4.63624e-20 0.0394866)
(-0.20844 0 0.0414324)
(-0.212124 3.63925e-22 0.0435788)
(-0.214851 -1.49674e-19 0.0450621)
(-0.218549 0 0.0468847)
(-0.221489 0 0.0478492)
(-0.226365 7.76758e-20 0.0494103)
(-0.230536 8.62347e-20 0.0499631)
(-0.237707 -1.46149e-19 0.0515516)
(-0.244063 -1.61886e-19 0.0520558)
(-0.254602 -1.24259e-19 0.0541466)
(-0.263835 1.42266e-19 0.0549881)
(-0.278201 1.94164e-19 0.057881)
(-0.290042 0 0.0592018)
(-0.307705 0 0.0629615)
(-0.321277 2.0387e-19 0.0647981)
(-0.341557 0 0.0693961)
(-0.356435 0 0.0717664)
(-0.379134 -1.02285e-19 0.0770304)
(-0.395521 0 0.0798612)
(-0.420444 1.10219e-19 0.0854308)
(-0.438798 1.58493e-22 0.0887171)
(-0.465448 -1.27365e-19 0.0942692)
(-0.4866 0 0.0983157)
(-0.514587 0 0.103725)
(-0.539791 0 0.10888)
(-0.567637 -3.53541e-19 0.113776)
(-0.598111 0 0.120351)
(-0.623532 4.04247e-19 0.124234)
(-0.660417 3.66741e-19 0.132437)
(-0.681232 0 0.134997)
(-0.726557 0 0.145002)
(-0.740703 0 0.146035)
(-0.796554 -1.73561e-21 0.157794)
(-0.802693 2.80205e-19 0.157307)
(-0.867244 -3.23711e-19 0.170064)
(-0.865382 6.2399e-20 0.168401)
(-0.934903 -4.32862e-20 0.181109)
(-0.921801 0 0.178865)
(-0.996649 -2.98198e-19 0.190813)
(-0.96853 0 0.188238)
(-1.03397 -1.16865e-18 0.197463)
(-1.00768 0 0.193924)
(-1.04494 0 0.199897)
(-1.01048 0 0.18988)
(-1.07214 -5.11189e-18 0.203514)
(-0.956613 1.34592e-17 0.18157)
(-1.13188 0 0.212887)
(-0.95358 -1.32159e-17 0.179074)
(-0.996559 5.0654e-18 0.15345)
(-0.512052 3.19483e-17 0.15384)
(-2.28807 4.75201e-17 0.406646)
(0.775313 0 -0.298813)
(-0.58984 0 0.792132)
(-13.0908 0 2.21865)
(10.0038 0 -3.6741)
(16.647 -1.09334e-16 -0.915676)
(-40.3431 1.27947e-19 8.28267)
(19.9009 -5.06848e-16 -8.77586)
(54.4737 0 -6.99816)
(-71.9861 0 20.756)
(-69.8973 1.54674e-16 7.82809)
(65.6767 0 -19.7678)
(69.3278 1.34641e-16 -9.5478)
(-36.1681 0 14.1694)
(-61.4583 8.92929e-17 12.4762)
(-44.3083 0 7.0666)
(-27.0454 0 3.47346)
(-0.141392 3.9464e-17 -1.4194)
(7.20323 0 -1.688)
(-0.140369 0 -0.00498504)
(-0.136476 -2.17211e-21 0.000912731)
(-0.129604 0 0.00936206)
(-0.123998 -1.77199e-21 0.0143951)
(-0.119309 -2.85309e-21 0.0138494)
(-0.118178 0 0.0106384)
(-0.12016 8.4552e-22 0.00884536)
(-0.122343 0 0.0102004)
(-0.123502 1.14763e-22 0.0130186)
(-0.124272 -1.806e-22 0.0144826)
(-0.124979 0 0.0147193)
(-0.124854 0 0.0163591)
(-0.123351 1.29754e-21 0.020757)
(-0.12136 0 0.0259477)
(-0.120313 0 0.0288081)
(-0.120731 0 0.0281246)
(-0.121989 5.17005e-21 0.0250814)
(-0.122981 5.47474e-21 0.021814)
(-0.122744 5.71743e-21 0.0201197)
(-0.120917 0 0.0208548)
(-0.117986 0 0.023708)
(-0.115112 6.01537e-21 0.0273839)
(-0.113476 -6.08157e-21 0.030266)
(-0.113498 6.11964e-21 0.0312447)
(-0.114521 1.22476e-20 0.0302262)
(-0.115337 -2.44327e-20 0.0280207)
(-0.115129 -4.5107e-23 0.0257209)
(-0.113951 1.19138e-20 0.0240649)
(-0.112483 1.17088e-20 0.0232179)
(-0.111498 0 0.0229484)
(-0.111526 0 0.0229059)
(-0.112752 1.08236e-20 0.0227967)
(-0.115101 0 0.022469)
(-0.118344 -1.99787e-20 0.0219133)
(-0.122249 -1.89979e-20 0.0212475)
(-0.126645 1.78909e-20 0.020647)
(-0.131534 0 0.0203207)
(-0.136993 -1.54309e-20 0.0203925)
(-0.143198 -1.40229e-20 0.0209201)
(-0.150163 3.70159e-23 0.021813)
(-0.157877 2.18507e-20 0.0230096)
(-0.166028 0 0.0243622)
(-0.17445 1.46641e-20 0.0259058)
(-0.182705 0 0.0275504)
(-0.190807 0 0.0294657)
(-0.198371 0 0.0315117)
(-0.205708 -2.25536e-23 0.0339139)
(-0.212343 0 0.0363526)
(-0.218841 1.24349e-20 0.0391211)
(-0.224451 -3.63274e-20 0.0416801)
(-0.230085 -4.35674e-20 0.0445119)
(-0.234651 0 0.0468522)
(-0.239682 5.93892e-20 0.0495103)
(-0.243658 1.39706e-19 0.0514158)
(-0.248941 0 0.053802)
(-0.25328 0 0.0551723)
(-0.259998 -7.29649e-20 0.0573169)
(-0.265725 -8.02853e-20 0.0582241)
(-0.275044 6.85909e-20 0.0604163)
(-0.283141 1.51073e-19 0.061231)
(-0.296208 0 0.0639748)
(-0.307403 0 0.0650914)
(-0.324739 3.95689e-22 0.0686961)
(-0.338779 1.12826e-19 0.0702615)
(-0.359905 0 0.0748193)
(-0.375942 -9.56889e-20 0.0769197)
(-0.400238 0 0.0824543)
(-0.417901 0 0.0851688)
(-0.445207 0 0.0915203)
(-0.464757 0 0.0947998)
(-0.494868 5.93515e-22 0.101565)
(-0.516854 1.43846e-22 0.105433)
(-0.549243 1.20026e-19 0.11224)
(-0.574682 0 0.117077)
(-0.608913 1.41301e-19 0.123756)
(-0.639268 0 0.129957)
(-0.67369 3.31516e-19 0.136052)
(-0.710418 5.66232e-20 0.143991)
(-0.74245 3.7783e-19 0.148915)
(-0.786993 -1.71207e-19 0.15887)
(-0.814129 0 0.162273)
(-0.868848 2.45011e-19 0.174445)
(-0.888582 0 0.17608)
(-0.955846 -2.54269e-19 0.190369)
(-0.966304 2.60165e-19 0.190214)
(-1.04441 3.03254e-19 0.205718)
(-1.0451 0 0.204139)
(-1.13031 8.31031e-20 0.219719)
(-1.11775 0 0.217474)
(-1.21025 -2.80717e-19 0.232162)
(-1.18033 0 0.229787)
(-1.26505 -1.09391e-18 0.241208)
(-1.234 0 0.237945)
(-1.29246 -3.95903e-18 0.246409)
(-1.24919 -1.89501e-18 0.235104)
(-1.33629 4.78371e-18 0.253776)
(-1.20776 -1.25938e-17 0.228705)
(-1.41372 0 0.267129)
(-1.21982 2.46684e-17 0.227027)
(-1.27814 -9.52927e-18 0.197351)
(-0.796496 0 0.22992)
(-2.7006 -4.44427e-17 0.466091)
(0.671908 0 -0.311667)
(-1.20075 0 1.12749)
(-13.8295 1.24736e-16 2.19803)
(11.2815 0 -4.42315)
(16.1648 0 -0.0353937)
(-42.9079 -8.83649e-17 8.76696)
(23.4073 4.73301e-16 -10.943)
(54.0453 -2.00165e-16 -5.51448)
(-80.3572 0 24.3019)
(-69.7207 0 5.65508)
(72.8416 0 -23.1534)
(67.738 0 -7.71724)
(-44.2706 9.26169e-17 16.3712)
(-65.9222 -4.16233e-17 13.3734)
(-47.8152 0 7.24904)
(-28.4003 0 3.11884)
(0.972478 0 -2.10831)
(8.09704 0 -1.94642)
(-0.137587 1.66617e-21 -0.000293291)
(-0.132571 0 0.00431723)
(-0.125891 1.75382e-21 0.010593)
(-0.121542 0 0.0149265)
(-0.117309 1.2988e-21 0.0155209)
(-0.115418 0 0.0136925)
(-0.11636 -7.94676e-22 0.0121393)
(-0.117956 9.21622e-22 0.0126697)
(-0.119024 9.4626e-22 0.0146626)
(-0.120127 1.05437e-22 0.0159737)
(-0.121938 0 0.0159654)
(-0.123893 0 0.016862)
(-0.124839 0 0.0205352)
(-0.124708 0 0.0257538)
(-0.124689 0 0.0293941)
(-0.125909 0 0.0296479)
(-0.128524 -4.90524e-21 0.0271891)
(-0.131807 5.21064e-21 0.023989)