/*--------------------------------*- C++ -*----------------------------------*\
| =========                 |                                                 |
| \\      /  F ield         | OpenFOAM: The Open Source CFD Toolbox           |
|  \\    /   O peration     | Version:  2412                                  |
|   \\  /    A nd           | Website:  www.openfoam.com                      |
|    \\/     M anipulation  |                                                 |
\*---------------------------------------------------------------------------*/
FoamFile
{
    version     2.0;
    format      ascii;
    arch        "LSB;label=32;scalar=64";
    class       volVectorField;
    location    "0.765";
    object      ddt0(U);
}
// * * * * * * * * * * * * * * * * * * * * * * * * * * * * * * * * * * * * * //

dimensions      [0 1 -2 0 0 0 0];

internalField   nonuniform List<vector> 
12600
(
(0.130082 -2.95666e-21 -0.0305749)
(-0.043046 -4.42908e-21 0.00029206)
(-0.0266991 -4.01144e-21 0.00786571)
(-0.0300572 0 0.00553085)
(-0.0366201 -3.08811e-21 0.00438468)
(-0.0373194 -2.77573e-21 0.00383245)
(-0.0354787 0 0.00341829)
(-0.0320664 0 0.00388561)
(-0.0279784 7.50467e-21 0.0040095)
(-0.0239481 0 0.00393217)
(-0.0206057 -2.60136e-21 0.0039082)
(-0.0184258 -2.06303e-21 0.00399952)
(-0.017352 1.55622e-21 0.00413708)
(-0.016825 0 0.00420689)
(-0.0161671 7.16808e-22 0.00413039)
(-0.0150065 0 0.0039112)
(-0.0134481 -1.52171e-22 0.0036242)
(-0.011902 0 0.00335881)
(-0.0107471 -8.68226e-22 0.00316395)
(-0.0101048 -1.24023e-21 0.00303464)
(-0.00985262 1.52346e-21 0.00293821)
(-0.00978486 -1.62438e-23 0.00284738)
(-0.0097496 0 0.00275427)
(-0.0096799 -3.90706e-21 0.00266422)
(-0.00954882 0 0.00258299)
(-0.00931598 0 0.00250856)
(-0.00890814 -3.82725e-21 0.00243055)
(-0.0082371 0 0.00233438)
(-0.00722825 5.28684e-23 0.00220495)
(-0.00583699 3.7473e-21 0.00202846)
(-0.00405007 3.85536e-21 0.00179358)
(-0.00188857 4.09362e-21 0.00149447)
(0.000590173 -4.47578e-21 0.00113261)
(0.00329301 -1.00087e-20 0.000717529)
(0.00610864 -1.13306e-20 0.000263397)
(0.00892185 1.28906e-20 -0.000212571)
(0.0116329 0 -0.000693916)
(0.0141523 -1.62551e-20 -0.00116339)
(0.0164116 0 -0.00160681)
(0.018348 1.94694e-20 -0.00200977)
(0.019925 0 -0.00236387)
(0.0211062 -1.278e-23 -0.00266004)
(0.0218837 0 -0.00289652)
(0.022228 -1.28538e-23 -0.00306662)
(0.022135 4.67638e-20 -0.00317107)
(0.0215548 -4.65521e-20 -0.00320054)
(0.0204781 4.57089e-20 -0.00315601)
(0.0188339 0 -0.00302328)
(0.0166247 0 -0.002804)
(0.0137791 3.95844e-20 -0.00248014)
(0.0103568 7.23965e-20 -0.00206033)
(0.00633072 6.44853e-20 -0.00152994)
(0.00186753 2.73943e-22 -0.000914335)
(-0.00300136 4.4832e-20 -0.000206845)
(-0.00800475 0 0.000547739)
(-0.0130933 -2.02686e-20 0.00135191)
(-0.0179377 -7.01833e-21 0.00214658)
(-0.0225431 5.67617e-21 0.0029411)
(-0.0265841 0 0.00367177)
(-0.0301816 0 0.00436545)
(-0.0330413 0 0.00495829)
(-0.0354041 -9.62342e-20 0.00549599)
(-0.036989 0 0.00591238)
(-0.0381323 0 0.00627013)
(-0.0385546 2.36073e-19 0.00650171)
(-0.0386518 0 0.00668356)
(-0.0381498 0 0.00674937)
(-0.0374416 0 0.00677914)
(-0.0363037 -1.86056e-19 0.00671528)
(-0.0350631 1.61355e-19 0.00663015)
(-0.0336628 1.36112e-19 0.006495)
(-0.0322347 -4.27039e-22 0.00635116)
(-0.0310236 -7.91206e-20 0.00622077)
(-0.0297551 0 0.00607217)
(-0.029149 2.03146e-20 0.00601098)
(-0.0282756 0 0.00589093)
(-0.0285867 0 0.00595097)
(-0.0281827 0 0.00587578)
(-0.0296231 -3.17998e-22 0.00609808)
(-0.0296445 -1.36748e-19 0.00605925)
(-0.0322992 -1.66909e-19 0.00647412)
(-0.0324781 1.32615e-19 0.00646868)
(-0.0359988 1.60154e-19 0.00707944)
(-0.0360083 0 0.00701606)
(-0.0393974 0 0.00769983)
(-0.0376995 -1.23705e-19 0.00746118)
(-0.0421233 2.36355e-19 0.00802875)
(-0.0361409 -2.02496e-20 0.00750288)
(-0.0393563 -2.27579e-19 0.00796735)
(-0.0389775 0 0.00691359)
(-0.028906 1.29356e-18 0.00761136)
(-0.0375728 2.29321e-19 0.00663075)
(-0.0425327 -1.14563e-18 0.00659147)
(-0.00915929 -6.02257e-18 0.00726197)
(-0.0751497 0 0.00799741)
(0.0123174 0 -0.000694602)
(-0.101311 0 0.0270448)
(0.115412 0 -0.0351321)
(-0.0525055 0 0.0215661)
(-0.434036 0 0.0830252)
(0.977099 -6.23151e-17 -0.193478)
(-1.85799 1.91705e-16 0.391094)
(0.645177 -1.28242e-16 -0.175968)
(2.45752 0 -0.437526)
(-4.90683 0 0.937651)
(4.00309 0 -0.828586)
(2.77263 4.72865e-17 -0.473639)
(-9.11896 4.16763e-16 1.68696)
(8.06179 3.25533e-16 -1.58075)
(2.25054 0 -0.372944)
(-14.324 8.74199e-17 2.6624)
(9.91588 0 -1.99993)
(12.9392 2.15249e-16 -2.31371)
(-13.7165 -6.39559e-17 2.7008)
(-6.76203 -2.2055e-16 1.16769)
(8.31432 1.76392e-16 -1.62922)
(5.45614 5.93091e-17 -0.996936)
(-2.93548 3.19145e-20 0.622682)
(-5.66211 -3.87742e-17 1.07009)
(-1.88725 0 0.351667)
(0.0920022 2.98551e-21 -0.0752296)
(0.00287051 0 -0.00416675)
(-0.0220097 4.05943e-21 0.0177537)
(-0.0483642 0 0.0120264)
(-0.0687448 3.12885e-21 0.00789965)
(-0.0768714 5.62476e-21 0.00692752)
(-0.0781779 2.51763e-21 0.00698436)
(-0.0758316 0 0.0079616)
(-0.0719236 2.25773e-23 0.00838978)
(-0.0674473 3.27953e-21 0.00873471)
(-0.0639034 -2.73502e-21 0.00952325)
(-0.0622765 -2.20223e-21 0.0106854)
(-0.0623001 1.69051e-21 0.0117906)
(-0.0627224 -1.2147e-21 0.0124198)
(-0.0622054 -1.51349e-21 0.0124215)
(-0.0601801 0 0.0119649)
(-0.0570921 -7.88016e-23 0.011387)
(-0.0539248 3.71939e-22 0.0109557)
(-0.05145 8.80865e-22 0.0107327)
(-0.0498194 0 0.0106163)
(-0.0487137 0 0.0104812)
(-0.0477484 1.77114e-21 0.0102751)
(-0.0467338 0 0.0100214)
(-0.0456678 1.99524e-21 0.00976987)
(-0.0445984 -4.11013e-21 0.00955279)
(-0.0435154 0 0.00937122)
(-0.042324 4.02554e-21 0.00920274)
(-0.0408792 0 0.0090156)
(-0.0390289 -3.79142e-21 0.00877571)
(-0.0366426 -7.63851e-21 0.00844904)
(-0.0336261 -7.83824e-21 0.00800514)
(-0.0299445 -4.14345e-21 0.00742659)
(-0.0256354 4.52902e-21 0.00671222)
(-0.0208124 2.02237e-20 0.00587731)
(-0.0156291 2.28739e-20 0.00494411)
(-0.0102589 0 0.00394126)
(-0.00485824 0 0.00289643)
(0.000413649 5.1394e-23 0.00184395)
(0.00542484 0 0.000813128)
(0.0100351 -1.96551e-20 -0.00016185)
(0.0141568 0 -0.00106185)
(0.0176902 -4.41743e-20 -0.00186243)
(0.0206075 0 -0.00255974)
(0.0228254 -4.67501e-20 -0.00313344)
(0.0243397 0 -0.00358766)
(0.025038 4.6875e-20 -0.00389667)
(0.0249292 0 -0.00406977)
(0.0238586 0 -0.00406912)
(0.0218619 -4.25461e-20 -0.00390724)
(0.0187441 0 -0.00353068)
(0.0146241 0 -0.0029657)
(0.00931631 0 -0.00215381)
(0.00310792 -5.54591e-20 -0.00115487)
(-0.00415206 -9.03618e-20 8.58973e-05)
(-0.011971 0 0.00146215)
(-0.0204921 0 0.0030252)
(-0.0290271 7.64998e-21 0.00462159)
(-0.0378006 -5.67589e-21 0.00631685)
(-0.046001 0 0.00792664)
(-0.0540572 0 0.00955593)
(-0.0610942 0 0.0110024)
(-0.0677956 0 0.0124193)
(-0.0732207 -1.08234e-19 0.0135883)
(-0.07831 1.14693e-19 0.0147122)
(-0.0820633 -2.35246e-19 0.0155626)
(-0.0856236 0 0.0163807)
(-0.0879413 0 0.0169356)
(-0.0902094 0 0.0174732)
(-0.0914291 -7.42792e-22 0.0177861)
(-0.0926803 -1.59812e-19 0.0180872)
(-0.0933016 -1.34688e-19 0.0182567)
(-0.0939431 2.14165e-19 0.018401)
(-0.0946621 -7.96529e-22 0.0185706)
(-0.0951412 -5.05814e-20 0.0186401)
(-0.0966678 -2.00259e-20 0.0189461)
(-0.0972857 0 0.0189891)
(-0.100219 0 0.019554)
(-0.10105 0 0.0195882)
(-0.105919 -1.33262e-19 0.0205268)
(-0.106788 0 0.0205144)
(-0.113887 0 0.0219085)
(-0.11431 -1.29793e-19 0.021805)
(-0.123339 -1.56579e-19 0.023682)
(-0.122678 0 0.0233208)
(-0.132531 0 0.025467)
(-0.128798 0 0.0246328)
(-0.140055 -2.31818e-19 0.02677)
(-0.130325 -8.71364e-22 0.0250637)
(-0.139571 -2.22608e-19 0.027101)
(-0.133245 -4.53753e-19 0.0244486)
(-0.128367 -1.25585e-18 0.0259848)
(-0.129585 2.23084e-19 0.0240985)
(-0.138769 2.21682e-18 0.0244739)
(-0.0956936 0 0.0225763)
(-0.178628 0 0.0289221)
(-0.0131392 0 0.00317891)
(-0.362475 0 0.0762757)
(0.417432 3.20777e-17 -0.0940538)
(-0.387052 0 0.0924258)
(-1.09232 0 0.179489)
(2.72276 -5.99175e-17 -0.520633)
(-5.60077 -9.18474e-17 1.13313)
(2.4579 2.4561e-16 -0.604672)
(6.28003 -5.21937e-17 -1.10082)
(-13.8915 0 2.68584)
(12.5889 0 -2.64929)
(6.19478 0 -0.951923)
(-24.9043 -1.98573e-16 4.68158)
(23.7281 -3.09811e-16 -4.82051)
(3.6067 0 -0.307019)
(-38.6263 -1.66611e-16 7.29029)
(30.3227 3.29834e-16 -6.3866)
(33.383 -4.08117e-16 -5.99798)
(-40.0349 0 8.14417)
(-16.2299 0 2.61093)
(24.013 1.66955e-16 -4.86771)
(13.8526 0 -2.48928)
(-9.6 -3.26626e-17 2.07498)
(-16.105 3.66318e-17 3.08005)
(-5.26416 0 0.94771)
(0.0812979 0 -0.0271473)
(0.0388555 0 0.0150064)
(0.00938352 3.5249e-21 0.0275114)
(-0.0204777 0 0.0163307)
(-0.0481423 0 0.00678011)
(-0.0668908 -2.70189e-21 0.00386599)
(-0.077719 -2.38425e-21 0.0044888)
(-0.0831098 0 0.00546176)
(-0.0848356 -3.62389e-23 0.00623264)
(-0.0845271 -3.10691e-21 0.00776235)
(-0.0844722 5.18604e-21 0.0105609)
(-0.0862666 2.08659e-21 0.013999)
(-0.0897657 3.46624e-23 0.016931)
(-0.0933692 1.15099e-21 0.0185464)
(-0.0952554 7.44937e-22 0.0187986)
(-0.0946189 -4.23556e-22 0.0182968)
(-0.0920863 1.67901e-22 0.0178143)
(-0.0890899 -3.52506e-22 0.0177748)
(-0.086778 0 0.0180947)
(-0.0853849 0 0.0184298)
(-0.0844489 1.41019e-21 0.0185242)
(-0.0834432 1.63679e-21 0.0183562)
(-0.0821711 0 0.0180552)
(-0.0807238 0 0.0177573)
(-0.0792461 3.89462e-21 0.0175285)
(-0.0777801 0 0.0173692)
(-0.0762452 -7.59624e-21 0.0172474)
(-0.0744888 3.70108e-21 0.0171261)
(-0.0723332 0 0.0169666)
(-0.0696107 3.64146e-21 0.016728)
(-0.066189 3.72776e-21 0.0163727)
(-0.0620101 0 0.0158803)
(-0.0571042 -4.26474e-21 0.0152477)
(-0.051591 -9.56572e-21 0.014485)
(-0.0456296 -6.97361e-23 0.0136009)
(-0.0393998 0 0.012609)
(-0.0330572 0 0.0115223)
(-0.0267704 1.55028e-20 0.0103709)
(-0.0206772 0 0.00918188)
(-0.0149437 0 0.00799672)
(-0.00966814 0 0.00683635)
(-0.00498476 0 0.00573635)
(-0.000925529 0 0.00470103)
(0.00238087 0 0.00376533)
(0.00493424 0 0.00292089)
(0.00656341 -4.42312e-20 0.00220834)
(0.00730365 4.34413e-20 0.00160472)
(0.0069276 0 0.00116724)
(0.00552476 4.02526e-20 0.000865251)
(0.00279821 0 0.00078581)
(-0.00104797 0 0.000883471)
(-0.006344 -6.1957e-20 0.00127177)
(-0.0126741 0 0.00187)
(-0.0203918 4.29433e-20 0.00281051)
(-0.0288122 -3.19401e-20 0.00395063)
(-0.0383405 0 0.00542909)
(-0.0479974 -7.23085e-21 0.00702176)
(-0.0583374 0 0.00888531)
(-0.0681425 0 0.0107252)
(-0.0782685 0 0.0127488)
(-0.0873088 7.55365e-20 0.0146098)
(-0.0964903 9.04481e-20 0.0165867)
(-0.104208 8.32203e-23 0.0182943)
(-0.112086 -2.16593e-19 0.0200921)
(-0.118338 -5.77505e-23 0.0215688)
(-0.124929 0 0.0231456)
(-0.129917 0 0.0243943)
(-0.135395 -1.93395e-19 0.0257421)
(-0.139425 -4.51808e-22 0.0267893)
(-0.143988 0 0.0279056)
(-0.147582 0 0.0288257)
(-0.15158 -1.01348e-19 0.0297397)
(-0.155523 -6.30998e-22 0.0306679)
(-0.15933 -7.03063e-22 0.0314195)
(-0.164429 0 0.032511)
(-0.168212 0 0.0331187)
(-0.175157 5.65266e-20 0.0345331)
(-0.178814 -8.51192e-20 0.0349891)
(-0.188289 0 0.0369012)
(-0.191381 0 0.037123)
(-0.203801 0 0.0396548)
(-0.205549 0 0.039523)
(-0.220662 0 0.0427314)
(-0.220118 0 0.0420748)
(-0.236792 0 0.0458031)
(-0.231677 0 0.0443882)
(-0.250133 2.20053e-19 0.0484272)
(-0.237294 1.03309e-20 0.0456515)
(-0.253404 2.09222e-19 0.0496148)
(-0.241835 4.26381e-19 0.045839)
(-0.243342 1.18238e-18 0.0482443)
(-0.238205 -2.09544e-19 0.0455501)
(-0.252132 -1.04136e-18 0.0470825)
(-0.200672 0 0.0408554)
(-0.298502 0 0.0529068)
(-0.0640384 0 0.0153197)
(-0.621191 0 0.118394)
(0.671892 -3.00942e-17 -0.139538)
(-0.772123 0 0.193676)
(-1.60817 0 0.218234)
(4.22402 5.61803e-17 -0.741421)
(-9.13249 0 1.81784)
(4.49897 -1.15175e-16 -1.19022)
(9.21508 4.89114e-17 -1.38648)
(-22.1278 0 4.18169)
(21.2499 0 -4.67407)
(7.95347 0 -0.694255)
(-38.5007 -1.86639e-16 6.9707)
(38.7301 0 -8.11159)
(2.29073 1.82915e-16 0.86866)
(-58.783 -5.16821e-19 10.6513)
(50.8109 -3.08689e-16 -11.3156)
(48.7554 3.81378e-16 -7.89096)
(-64.9496 0 13.5756)
(-21.9641 1.95565e-16 2.53598)
(38.6712 -1.56166e-16 -8.03106)
(19.7841 5.24005e-17 -3.12605)
(-16.9093 0 3.87961)
(-25.7117 -3.42521e-17 4.83331)
(-8.26495 0 1.36212)
(0.076468 0 0.00507641)
(0.0532155 0 0.0245863)
(0.0345844 -3.33236e-21 0.0307267)
(0.0152778 0 0.0205382)
(-0.0079943 2.69046e-21 0.00892686)
(-0.0300268 -4.90806e-21 0.00307454)
(-0.0481333 0 0.00177475)
(-0.0616605 3.8531e-21 0.00168662)
(-0.070682 -3.40826e-21 0.00213064)
(-0.076334 -2.87962e-21 0.00443106)
(-0.0810241 -2.45368e-21 0.00913582)
(-0.0869654 1.99911e-21 0.0149082)
(-0.0945924 -1.54765e-21 0.0196648)
(-0.102402 2.30345e-21 0.022101)
(-0.1082 0 0.0223345)
(-0.110688 8.30645e-22 0.0215603)
(-0.110296 0 0.021107)
(-0.108717 0 0.0215683)
(-0.107569 0 0.0226291)
(-0.107366 9.74356e-22 0.0235988)
(-0.107595 -7.22032e-23 0.024049)
(-0.107543 -6.75488e-23 0.024016)
(-0.106941 1.6306e-21 0.0237792)
(-0.105958 0 0.023576)
(-0.104847 0 0.0234914)
(-0.103711 0 0.0235016)
(-0.102481 7.06507e-21 0.0235508)
(-0.101004 -7.65642e-23 0.0235913)
(-0.0990968 0 0.0235814)
(-0.0965742 0 0.0234786)
(-0.0932875 0 0.0232476)
(-0.0891767 0 0.0228774)
(-0.084282 8.01692e-21 0.0223731)
(-0.0787405 0 0.0217456)
(-0.0727205 -1.01565e-20 0.0209922)
(-0.0664093 0 0.0201117)
(-0.0599581 0 0.0191019)
(-0.0535397 -1.4445e-20 0.017987)
(-0.0472869 0 0.01679)
(-0.04138 0 0.0155566)
(-0.0359138 1.85567e-20 0.0143063)
(-0.0310457 -3.90906e-20 0.0130835)
(-0.0267979 0 0.0118914)
(-0.0233337 -4.14458e-20 0.0107796)
(-0.0206347 0 0.00973518)
(-0.0189213 8.34195e-20 0.00881441)
(-0.0181181 -1.31715e-22 0.00798073)
(-0.0185176 0 0.0073117)
(-0.0199615 0 0.00675787)
(-0.0228418 -3.5657e-20 0.00643918)
(-0.0268511 -6.5439e-20 0.00628704)
(-0.0324607 1.17046e-19 0.00646579)
(-0.0391069 0 0.00686593)
(-0.0473486 4.09293e-20 0.00769025)
(-0.0562894 3.01503e-20 0.00874987)
(-0.0666136 1.92321e-20 0.0102654)
(-0.0770378 7.30847e-21 0.0119356)
(-0.088485 0 0.0140098)
(-0.0993212 0 0.0160818)
(-0.110888 -5.22428e-20 0.0184693)
(-0.12123 -1.42081e-19 0.0206813)
(-0.132196 -8.5308e-20 0.0231324)
(-0.141482 3.19929e-22 0.0252667)
(-0.151491 1.02109e-19 0.0276148)
(-0.159588 1.04872e-19 0.0295726)
(-0.168671 0 0.0317606)
(-0.175804 0 0.0335364)
(-0.184125 1.82252e-19 0.0355375)
(-0.190609 3.30274e-19 0.037147)
(-0.198325 0 0.0389356)
(-0.204719 1.21167e-19 0.0404518)
(-0.212135 9.6436e-20 0.0420314)
(-0.219302 7.06825e-20 0.0435996)
(-0.226702 9.16855e-20 0.0449826)
(-0.235518 0 0.0467829)
(-0.242904 0 0.0479615)
(-0.25412 -5.31928e-20 0.050192)
(-0.261188 1.59109e-19 0.051135)
(-0.275607 1.16351e-19 0.0540228)
(-0.281617 0 0.0545951)
(-0.299749 0 0.0583044)
(-0.303583 0 0.0583114)
(-0.325216 0 0.062922)
(-0.32558 0 0.0621415)
(-0.34956 0 0.0675459)
(-0.343843 1.08914e-19 0.065662)
(-0.370099 8.40924e-22 0.0715925)
(-0.354869 -1.02788e-20 0.0679707)
(-0.378625 0 0.0737189)
(-0.362645 4.01346e-19 0.0687613)
(-0.371381 -5.55499e-19 0.0728802)
(-0.360693 0 0.0683474)
(-0.380468 -9.83132e-19 0.0716436)
(-0.320981 5.15073e-18 0.0632828)
(-0.433039 0 0.0762332)
(-0.13962 0 0.0343176)
(-0.875274 0 0.156301)
(0.873749 -2.82678e-17 -0.178936)
(-1.19428 0 0.311393)
(-1.97826 0 0.243527)
(5.47536 5.2839e-17 -0.883951)
(-12.3548 8.08358e-17 2.46129)
(6.68834 0 -1.90616)
(11.2583 0 -1.3865)
(-29.4365 0 5.46084)
(29.6131 0 -6.76946)
(8.11386 0 0.0849243)
(-49.5774 -3.43259e-19 8.68006)
(52.5513 0 -11.348)
(-1.48191 -1.71166e-16 2.77808)
(-74.3064 7.36596e-17 12.9806)
(70.4789 0 -16.4821)
(58.9959 -3.752e-19 -8.3668)
(-87.6 0 18.8477)
(-24.2581 3.27025e-20 1.51565)
(51.9575 0 -11.0584)
(23.1876 -4.89926e-17 -3.10828)
(-24.6304 0 5.90842)
(-34.3213 -3.20068e-17 6.37105)
(-10.8399 0 1.645)
(0.0719196 0 0.013659)
(0.0575012 0 0.0225671)
(0.0471839 0 0.02722)
(0.0379401 0 0.0209025)
(0.0232377 -2.53967e-21 0.0115008)
(0.00534389 5.68248e-23 0.00546649)
(-0.0126878 0 0.00289262)
(-0.0292088 -3.63692e-21 0.00129598)
(-0.0430062 0 0.000335792)
(-0.0536549 5.38942e-21 0.00205702)
(-0.0624555 0 0.00755611)
(-0.0716427 -1.88733e-21 0.015049)
(-0.0824456 0 0.0213855)
(-0.0940386 -2.17485e-21 0.0244778)
(-0.104192 7.50545e-22 0.0244138)
(-0.110904 -8.38841e-22 0.0229775)
(-0.113836 3.19428e-22 0.022206)
(-0.114494 -1.38716e-22 0.0230095)
(-0.114974 0 0.024849)
(-0.116377 -9.20073e-22 0.0265707)
(-0.118349 -1.19138e-21 0.0274641)
(-0.119958 -2.72334e-21 0.0276075)
(-0.120717 -1.53973e-21 0.0274779)
(-0.120805 0 0.0274501)
(-0.120614 0 0.0276208)
(-0.120335 0 0.0279164)
(-0.119915 -3.29357e-21 0.0282393)
(-0.119198 -3.23264e-21 0.0285279)
(-0.118 0 0.0287389)
(-0.116132 0 0.0288317)
(-0.113429 3.19446e-21 0.0287794)
(-0.109828 0 0.0285885)
(-0.105379 -6.03407e-23 0.0282805)
(-0.100242 -8.26995e-21 0.027872)
(-0.0945977 9.36197e-21 0.0273504)
(-0.0886465 0 0.026699)
(-0.0825398 0 0.0258991)
(-0.0764583 1.36335e-20 0.0249675)
(-0.0705306 0 0.0239194)
(-0.0649528 0 0.0228015)
(-0.0598143 -1.75113e-20 0.0216267)
(-0.0552963 3.68861e-20 0.0204451)
(-0.0514061 0 0.0192549)
(-0.0483392 3.91034e-20 0.0181194)
(-0.0460492 0 0.0170188)
(-0.044803 -3.92726e-20 0.0160258)
(-0.0444752 -3.85868e-20 0.0150876)
(-0.0454235 0 0.014304)
(-0.0474092 -3.56529e-20 0.0136029)
(-0.0509239 3.36266e-20 0.0131383)
(-0.0555442 1.23289e-19 0.012811)
(-0.0618916 -5.51994e-20 0.0128368)
(-0.0692379 4.73126e-20 0.0130669)
(-0.0783601 3.76957e-23 0.013777)
(-0.0881268 0 0.0147216)
(-0.099521 -1.8127e-20 0.0162129)
(-0.110924 -6.88782e-21 0.0178661)
(-0.12366 -3.85175e-21 0.0200434)
(-0.135637 1.47479e-20 0.0222238)
(-0.148731 4.92203e-20 0.0248616)
(-0.160388 6.67222e-20 0.0273129)
(-0.173143 -7.95112e-20 0.0301555)
(-0.183932 9.04134e-20 0.0326448)
(-0.196024 0 0.0355081)
(-0.205847 0 0.0379206)
(-0.217353 9.64922e-20 0.0407291)
(-0.226486 0 0.0430413)
(-0.237591 0 0.0457394)
(-0.246389 -1.55485e-19 0.0479511)
(-0.257247 0 0.0504892)
(-0.266332 -1.14e-19 0.0526746)
(-0.277232 -1.81676e-19 0.0550324)
(-0.28756 0 0.0573455)
(-0.298717 -4.3384e-20 0.0594973)
(-0.311249 0 0.0621311)
(-0.322522 0 0.064023)
(-0.338093 4.81006e-20 0.0672005)
(-0.348995 -7.42734e-20 0.0687609)
(-0.368536 -5.81413e-22 0.0727484)
(-0.378036 0 0.0737739)
(-0.40216 0 0.0787804)
(-0.408784 0 0.0789966)
(-0.437337 1.31296e-19 0.0851373)
(-0.439423 -8.00007e-20 0.084258)
(-0.471234 0 0.0914796)
(-0.465786 -2.04391e-19 0.0891035)
(-0.500515 -9.8234e-20 0.0971068)
(-0.483764 1.90934e-20 0.0926219)
(-0.51602 1.87981e-19 0.100432)
(-0.496536 -7.53512e-19 0.0942747)
(-0.513528 0 0.100657)
(-0.497997 0 0.094068)
(-0.524791 9.21846e-19 0.0998743)
(-0.458052 -4.82888e-18 0.0895429)
(-0.583459 -5.30001e-18 0.10186)
(-0.240756 0 0.0613819)
(-1.12749 0 0.188981)
(1.01884 2.64852e-17 -0.205812)
(-1.64254 -2.35028e-17 0.449978)
(-2.23202 0 0.191797)
(6.4695 -4.9485e-17 -0.933004)
(-15.2122 -7.56939e-17 3.01954)
(8.93172 0 -2.71216)
(12.4382 0 -1.06661)
(-35.6401 0 6.42965)
(37.349 0 -8.85785)
(6.82882 0 1.46335)
(-57.9743 1.63777e-16 9.64803)
(64.7697 0 -14.3658)
(-7.27581 0 5.70858)
(-85.0624 0 14.0061)
(88.4693 2.70277e-16 -21.6474)
(64.2732 -1.66312e-16 -7.30194)
(-107.109 0 23.6292)
(-23.7633 -1.71012e-16 -0.402073)
(63.5355 0 -13.8295)
(24.1323 -4.56608e-17 -2.31582)
(-32.4378 0 8.08755)
(-41.8279 2.99116e-17 7.60995)
(-12.9793 0 1.75965)
(0.0682742 2.75235e-21 0.0153404)
(0.0580467 2.79448e-21 0.0192741)
(0.0506053 -2.67614e-21 0.0222566)
(0.0462988 -2.48659e-21 0.0186313)
(0.0383805 0 0.0123816)
(0.0267252 2.10702e-21 0.00822248)
(0.0132919 0 0.00623598)
(-0.000900917 -3.26217e-21 0.00409071)
(-0.0149464 -2.85324e-21 0.00175355)
(-0.0275745 -4.98415e-21 0.0020386)
(-0.0384774 2.10342e-21 0.0070848)
(-0.0490108 -1.75142e-21 0.015377)
(-0.0608614 0 0.0229968)
(-0.0743322 0 0.0268274)
(-0.08786 -7.07618e-22 0.026481)
(-0.098991 -2.38233e-23 0.0240729)
(-0.106139 5.24811e-23 0.0224554)
(-0.109852 5.60598e-23 0.0231734)
(-0.112324 0 0.0256602)
(-0.11546 0 0.0282181)
(-0.119457 0 0.0296508)
(-0.123254 2.4267e-21 0.0299783)
(-0.125967 1.31754e-21 0.0299205)
(-0.127628 0 0.0300656)
(-0.128764 0 0.0305403)
(-0.129723 2.90593e-21 0.0311907)
(-0.130485 0 0.0318513)
(-0.130883 0 0.0324425)
(-0.130745 0 0.0329233)
(-0.12989 0 0.0332555)
(-0.12814 -7.59364e-23 0.0334198)
(-0.12541 0 0.0334445)
(-0.121753 -6.46826e-23 0.0333726)
(-0.117349 7.79567e-21 0.0332301)
(-0.112398 -1.27432e-22 0.032994)
(-0.107115 0 0.032632)
(-0.101654 0 0.0321071)
(-0.0962053 0 0.0314293)
(-0.090892 0 0.0306048)
(-0.085927 0 0.0296809)
(-0.0813928 0 0.0286613)
(-0.0774984 0 0.0276008)
(-0.0742337 -3.54866e-20 0.0264895)
(-0.0718296 -3.63368e-20 0.0254049)
(-0.0702052 0 0.0243168)
(-0.0696791 -3.65844e-20 0.0233163)
(-0.0700675 0 0.0223312)
(-0.0718021 0 0.0214871)
(-0.0745524 6.70077e-20 0.0206852)
(-0.0789221 0 0.0201194)
(-0.0843565 -5.79946e-20 0.0196544)
(-0.0916464 0 0.0195635)
(-0.0998775 -8.89928e-20 0.0196503)
(-0.11007 -4.97952e-23 0.0202709)
(-0.120826 0 0.0211119)
(-0.133463 0 0.0225876)
(-0.145988 0 0.024218)
(-0.160168 7.08653e-21 0.0264943)
(-0.173409 -2.75563e-20 0.0287682)
(-0.188176 -4.5388e-20 0.0316522)
(-0.201251 -6.18119e-20 0.0343331)
(-0.215937 1.49085e-19 0.0375762)
(-0.228317 8.41214e-20 0.0404263)
(-0.242637 0 0.0438337)
(-0.254266 0 0.0467237)
(-0.26835 -3.63808e-22 0.0501981)
(-0.279559 0 0.0530805)
(-0.293625 0 0.0565309)
(-0.304821 -1.45782e-19 0.0593846)
(-0.319039 0 0.0627358)
(-0.33092 0 0.0656371)
(-0.345582 1.71045e-19 0.0688462)
(-0.359207 -6.33032e-20 0.0719588)
(-0.374474 0 0.0749601)
(-0.390903 0 0.0784897)
(-0.406511 0 0.0811808)
(-0.426688 -4.51738e-20 0.0853788)
(-0.441988 0 0.087647)
(-0.466983 -2.03695e-19 0.0928192)
(-0.480663 1.02359e-19 0.0943901)
(-0.511212 0 0.100798)
(-0.521435 0 0.101317)
(-0.557461 -1.23206e-19 0.109123)
(-0.562175 2.99941e-22 0.10823)
(-0.602509 -9.32939e-20 0.117437)
(-0.598286 9.5818e-20 0.114629)
(-0.642347 -9.33138e-20 0.124911)
(-0.625044 -8.85934e-21 0.119589)
(-0.666874 -1.7625e-19 0.129729)
(-0.644883 -4.58024e-22 0.122366)
(-0.671408 0 0.1314)
(-0.651797 -1.68248e-19 0.122753)
(-0.687086 0 0.131351)
(-0.613891 0 0.11928)
(-0.752188 4.96512e-18 0.130188)
(-0.369356 0 0.0952036)
(-1.38125 0 0.217792)
(1.10236 0 -0.218707)
(-2.10703 2.20059e-17 0.598186)
(-2.38476 0 0.0996079)
(7.19374 -4.64761e-17 -0.88832)
(-17.6657 0 3.49073)
(11.1209 0 -3.58963)
(12.8118 0 -0.443185)
(-40.5881 0 7.06651)
(44.1873 0 -10.8866)
(4.28694 3.3024e-17 3.34236)
(-63.6799 1.53791e-16 9.89832)
(75.0634 2.3774e-16 -17.0941)
(-14.7616 0 8.7786)
(-91.2094 0 13.7839)
(104.089 -5.05373e-16 -26.6298)
(64.8302 0 -4.76656)
(-122.606 -4.73671e-17 27.7738)
(-21.2867 0 -3.14809)
(73.0804 -1.27063e-16 -16.2935)
(22.7437 4.26692e-17 -0.808873)
(-39.9578 0 10.3518)
(-48.1606 2.79185e-17 8.55039)
(-14.6912 0 1.71562)
(0.0649499 -2.59198e-21 0.0155449)
(0.0570108 -5.17722e-21 0.0169389)
(0.0498635 2.5208e-21 0.0181555)
(0.0467885 7.89716e-23 0.0160193)
(0.0423106 -2.06808e-21 0.012354)
(0.0352702 0 0.010123)
(0.02674 0 0.00940743)
(0.0169835 3.07186e-21 0.00790186)
(0.00582441 5.29984e-21 0.00512711)
(-0.00583586 5.62588e-23 0.00413733)
(-0.0166753 -1.98052e-21 0.00799468)
(-0.0266735 1.64907e-21 0.016105)
(-0.0372279 -1.30687e-21 0.0245388)
(-0.0497014 0 0.0293291)
(-0.063963 0 0.0291646)
(-0.078047 4.06649e-22 0.025889)
(-0.0893503 -7.17931e-22 0.0229678)
(-0.0967476 8.44545e-23 0.022929)
(-0.101626 0 0.0256593)
(-0.106463 0 0.0290399)
(-0.112422 0 0.0311438)
(-0.118676 -7.25513e-23 0.031686)
(-0.123869 -2.41048e-21 0.0316142)
(-0.12761 1.25317e-21 0.0318505)
(-0.13046 2.58836e-21 0.0326194)
(-0.132982 -5.34698e-21 0.0336613)
(-0.135249 2.59809e-21 0.0346994)
(-0.137074 2.57332e-21 0.0356257)
(-0.138291 2.56074e-21 0.0364099)
(-0.138759 0 0.0370148)
(-0.138288 -2.76396e-21 0.0374214)
(-0.136755 2.87164e-21 0.0376795)
(-0.13419 -3.22384e-21 0.0378604)
(-0.130794 -7.09528e-21 0.0380043)
(-0.126788 -1.62512e-20 0.0380781)
(-0.122412 0 0.0380327)
(-0.11782 0 0.0378123)
(-0.113217 -1.16901e-20 0.0374209)
(-0.108718 0 0.0368561)
(-0.104556 1.40918e-20 0.036167)
(-0.100801 1.51021e-20 0.0353469)
(-0.0976964 0 0.0344562)
(-0.0952113 6.6502e-20 0.0334736)
(-0.0936193 3.41952e-20 0.0324915)
(-0.0927969 0 0.0314658)
(-0.0931242 3.44245e-20 0.0305079)
(-0.0943494 3.3634e-20 0.0295212)
(-0.0969926 0 0.0286615)
(-0.100617 -6.2711e-20 0.0277982)
(-0.105957 2.9429e-20 0.0271716)
(-0.112306 5.40731e-20 0.0266034)
(-0.12065 0 0.026433)
(-0.129859 1.81926e-22 0.0264063)
(-0.141231 -6.81822e-20 0.0269701)
(-0.153065 0 0.0277288)
(-0.167055 0 0.0292122)
(-0.180782 6.41127e-21 0.0308276)
(-0.196526 -3.25422e-21 0.0332142)
(-0.211113 2.55449e-20 0.0355765)
(-0.227685 4.26658e-20 0.03871)
(-0.242266 5.80996e-20 0.0416095)
(-0.259036 -6.98113e-20 0.0452577)
(-0.273108 -1.57573e-19 0.0484612)
(-0.289838 0 0.052428)
(-0.303388 0 0.0557996)
(-0.320262 -1.694e-19 0.0599707)
(-0.333677 0 0.0634409)
(-0.350955 0 0.0676899)
(-0.3647 1.36921e-19 0.0712181)
(-0.382582 0 0.0754451)
(-0.397442 -1.00473e-19 0.0791123)
(-0.416234 -3.46978e-23 0.0832515)
(-0.433377 5.94297e-20 0.0872321)
(-0.453198 0 0.0911753)
(-0.473799 0 0.0956901)
(-0.494279 0 0.0992832)
(-0.519418 -4.12287e-20 0.104617)
(-0.539761 0 0.107703)
(-0.570661 9.52994e-20 0.114203)
(-0.589291 -1.91305e-19 0.116431)
(-0.626835 0 0.124418)
(-0.641548 0 0.125343)
(-0.685762 0 0.135035)
(-0.694093 4.32257e-22 0.134212)
(-0.743831 8.74605e-20 0.14567)
(-0.741881 8.87515e-20 0.142477)
(-0.79636 8.74575e-20 0.155355)
(-0.779573 -7.16557e-21 0.149188)
(-0.832324 0 0.162052)
(-0.808915 3.31555e-19 0.153434)
(-0.846537 0 0.165603)
(-0.823712 1.57592e-19 0.154839)
(-0.869272 0 0.166672)
(-0.790485 0 0.152992)
(-0.941811 0 0.161896)
(-0.527169 -7.53157e-19 0.136408)
(-1.64093 1.23851e-17 0.243085)
(1.12101 0 -0.21605)
(-2.58048 -2.04801e-17 0.757392)
(-2.47006 4.40167e-18 -0.0640202)
(7.64756 4.34866e-17 -0.74913)
(-19.7 6.6224e-17 3.86069)
(13.1484 0 -4.50682)
(12.4756 0 0.462848)
(-44.2187 0 7.34481)
(49.927 0 -12.7861)
(0.763096 -3.08804e-17 5.67089)
(-66.8884 2.83633e-19 9.44148)
(83.2522 -4.44402e-16 -19.4334)
(-23.0347 0 13.5255)
(-93.2869 0 12.41)
(116.885 2.36178e-16 -31.2644)
(61.0123 0 -0.850085)
(-133.44 4.42649e-17 31.0355)
(-17.6719 0 -6.5649)
(80.3152 2.37188e-16 -18.2559)
(19.2429 0 1.38768)
(-46.8205 0 12.5744)
(-53.3124 -2.60803e-17 9.17069)
(-16.0089 0 1.51621)
(0.0615401 0 0.0150144)
(0.0552699 2.39439e-21 0.0153525)
(0.0480604 0 0.0156119)
(0.0448182 2.12935e-21 0.0143065)
(0.0414704 3.82347e-21 0.0122671)
(0.0367189 0 0.0112999)
(0.0313595 -1.52557e-21 0.0115728)
(0.0253778 0 0.0111643)
(0.0177988 -7.6439e-23 0.00896372)
(0.0085767 4.20274e-21 0.00743204)
(-0.000920217 0 0.00999694)
(-0.00946794 0 0.0171229)
(-0.0174987 1.22921e-21 0.0256398)
(-0.0267149 0 0.0313939)
(-0.0385167 0 0.0321195)
(-0.0524869 0 0.028703)
(-0.0661737 3.62051e-22 0.0245295)
(-0.0769256 -1.32458e-23 0.0230972)
(-0.084383 -2.63043e-22 0.0253658)
(-0.0907071 0 0.0293083)
(-0.098066 0 0.0321926)
(-0.106454 -9.74324e-22 0.0330483)
(-0.114284 1.10028e-21 0.032871)
(-0.120489 -1.17864e-21 0.0330304)
(-0.125371 -2.4344e-21 0.0339988)
(-0.129697 4.78088e-21 0.0354229)
(-0.133718 -1.22438e-22 0.0368508)
(-0.137233 -2.42019e-21 0.0381208)
(-0.140063 -2.40833e-21 0.0392246)
(-0.142123 0 0.040128)
(-0.143243 0 0.0407973)
(-0.143242 -2.70059e-21 0.041297)
(-0.142091 0 0.0417342)
(-0.139992 6.67232e-21 0.0421728)
(-0.137195 7.58252e-21 0.0425707)
(-0.13397 -8.5224e-21 0.0428595)
(-0.130476 0 0.0429625)
(-0.126935 1.0992e-20 0.0428794)
(-0.123456 1.20272e-20 0.0425989)
(-0.120289 -1.38081e-22 0.0421745)
(-0.117489 -2.82559e-20 0.0415876)
(-0.115339 0 0.0409059)
(-0.113783 -3.1122e-20 0.0400934)
(-0.113148 0 0.0392595)
(-0.113259 0 0.0383415)
(-0.114568 0 0.0374741)
(-0.116743 -2.36484e-22 0.0365304)
(-0.120412 0 0.0357015)
(-0.125014 2.93821e-20 0.034818)
(-0.131437 -5.51257e-20 0.0341749)
(-0.138795 -5.08133e-20 0.0335415)
(-0.148304 0 0.0333347)
(-0.158578 3.91048e-20 0.0332292)
(-0.171238 6.37563e-20 0.0337768)
(-0.184225 0 0.0344819)
(-0.199677 0 0.0360075)
(-0.21468 -6.02243e-21 0.0376257)
(-0.232105 2.86992e-21 0.0401476)
(-0.24811 -1.1916e-20 0.0426041)
(-0.266622 -3.92902e-20 0.0460042)
(-0.282788 0 0.0491197)
(-0.301804 0 0.053188)
(-0.317661 5.28283e-22 0.0567415)
(-0.336994 -7.78163e-20 0.0612884)
(-0.352576 0 0.065145)
(-0.372471 7.9307e-20 0.0700452)
(-0.388223 0 0.0741182)
(-0.40899 0 0.0792123)
(-0.425445 0 0.0834456)
(-0.447324 0 0.0886104)
(-0.465364 3.03156e-22 0.093093)
(-0.488686 -1.35602e-22 0.0982393)
(-0.509598 -5.56655e-20 0.103159)
(-0.534452 0 0.108132)
(-0.559546 -1.61879e-20 0.113728)
(-0.585472 0 0.118321)
(-0.615995 3.86601e-20 0.124921)
(-0.642067 -5.83315e-20 0.128928)
(-0.679421 8.85135e-20 0.136924)
(-0.703811 8.93236e-20 0.139913)
(-0.749058 0 0.149692)
(-0.769189 -8.73146e-20 0.15112)
(-0.822494 0 0.162968)
(-0.835472 6.52744e-20 0.162289)
(-0.895737 8.20672e-20 0.17633)
(-0.897153 -8.31425e-20 0.172784)
(-0.963436 0 0.18866)
(-0.948289 1.25108e-20 0.181626)
(-1.01367 0 0.197702)
(-0.989973 3.11156e-19 0.187752)
(-1.04066 0 0.203671)
(-1.01557 1.44961e-19 0.190514)
(-1.07356 0 0.206289)
(-0.99009 -3.96e-18 0.191099)
(-1.15526 -4.31039e-18 0.19758)
(-0.716355 7.04804e-19 0.185009)
(-1.91137 -1.15887e-17 0.26635)
(1.07237 0 -0.19702)
(-3.05591 3.82365e-17 0.922409)
(-2.50621 -8.33779e-18 -0.232557)
(7.83706 0 -0.518264)
(-21.3185 -6.19353e-17 4.12967)
(14.9136 0 -5.43424)
(11.5575 0 1.61947)
(-46.5709 1.56732e-16 7.26952)
(54.4377 0 -14.5095)
(-3.4088 0 8.35152)
(-67.9734 -1.34676e-16 8.34304)
(89.361 4.15043e-16 -21.3388)
(-31.8087 -1.29914e-16 17.6029)
(-92.2407 0 10.0371)
(126.654 0 -35.4311)
(53.3011 0 4.30822)
(-139.321 0 33.3146)
(-13.6744 1.39358e-16 -10.436)
(84.9947 -1.10668e-16 -19.672)
(13.9399 0 4.2002)
(-52.6783 0 14.6806)
(-57.3323 0 9.47932)
(-16.9854 0 1.16891)
(0.0581662 -2.0946e-21 0.0146033)
(0.053234 0 0.0147335)
(0.0461662 -1.98407e-21 0.0146175)
(0.0426497 0 0.0137032)
(0.0395818 -1.76488e-21 0.0125319)
(0.0357044 0 0.0122309)
(0.0317676 1.43384e-21 0.0130223)
(0.0279585 -2.45278e-21 0.0134819)
(0.0231097 -4.39894e-21 0.0123375)
(0.0163675 -6.21759e-23 0.0109836)
(0.00859152 0 0.0125763)
(0.00151225 0 0.0182821)
(-0.00421104 0 0.0260623)
(-0.00977242 0 0.0323438)
(-0.0173163 0 0.0343974)
(-0.0281516 0 0.0318906)
(-0.0412447 -4.37768e-22 0.0272548)
(-0.0536372 1.01234e-22 0.0243179)
(-0.0631477 2.47138e-22 0.0253842)