/*--------------------------------*- C++ -*----------------------------------*\
| =========                 |                                                 |
| \\      /  F ield         | OpenFOAM: The Open Source CFD Toolbox           |
|  \\    /   O peration     | Version:  2412                                  |
|   \\  /    A nd           | Website:  www.openfoam.com                      |
|    \\/     M anipulation  |                                                 |
\*---------------------------------------------------------------------------*/
FoamFile
{
    version     2.0;
    format      ascii;
    arch        "LSB;label=32;scalar=64";
    class       volScalarField;
    location    "1.075";
    object      Co;
}
// * * * * * * * * * * * * * * * * * * * * * * * * * * * * * * * * * * * * * //

dimensions      [0 0 0 0 0 0 0];

internalField   nonuniform List<scalar> 
12600
(
0.314571
0.176556
0.0999998
0.0629289
0.0449652
0.0350493
0.0286526
0.0240729
0.0205996
0.0178642
0.01565
0.0138201
0.0122833
0.0109756
0.00985106
0.00887527
0.00802216
0.00727149
0.00660729
0.00601673
0.00548942
0.00501683
0.00459186
0.00420859
0.003862
0.00354784
0.00326244
0.00300267
0.0027658
0.00254947
0.00235158
0.00217033
0.00200409
0.00185145
0.00171115
0.00158205
0.00146316
0.00135356
0.00125245
0.00115911
0.00107286
0.000993136
0.000919381
0.000851115
0.000787891
0.000729311
0.000675003
0.000624639
0.000577906
0.000534532
0.000494253
0.000456843
0.000422078
0.000389772
0.000359729
0.000331798
0.00030581
0.00028164
0.000259139
0.000238207
0.000218714
0.000200577
0.000183681
0.000167961
0.000153314
0.000139688
0.000126993
0.000115186
0.000104189
9.39671e-05
8.44522e-05
7.56147e-05
6.73991e-05
5.97761e-05
5.27054e-05
4.6153e-05
4.00978e-05
3.44943e-05
2.93452e-05
2.45897e-05
2.02512e-05
1.62653e-05
1.26432e-05
9.37677e-06
6.36792e-06
3.79733e-06
1.89236e-06
2.86208e-06
4.35632e-06
5.44337e-06
7.72101e-06
7.30097e-06
1.01584e-05
9.6134e-06
1.04038e-05
1.3211e-05
1.24687e-05
1.70935e-05
1.61191e-05
1.47023e-05
1.3852e-05
1.23117e-05
2.69756e-05
2.53867e-05
2.52514e-05
2.37441e-05
1.46896e-05
3.15624e-05
3.23204e-05
3.40714e-05
2.96159e-05
1.87473e-05
2.48273e-05
2.32715e-05
6.65903e-06
5.75189e-06
1.78932e-05
1.67469e-05
9.24498e-06
5.30156e-07
0.477576
0.37627
0.276235
0.2024
0.153093
0.120516
0.0982098
0.082117
0.0699525
0.0604213
0.0527471
0.0464364
0.0411596
0.0366877
0.0328558
0.0295418
0.0266532
0.0241186
0.0218816
0.0198975
0.0181297
0.0165486
0.0151296
0.0138522
0.0126989
0.0116552
0.0107084
0.00984795
0.00906436
0.00834959
0.00769657
0.00709912
0.00655177
0.00604971
0.00558868
0.00516487
0.00477489
0.00441573
0.00408466
0.00377925
0.00349729
0.00323682
0.00299602
0.00277329
0.00256715
0.00237626
0.00219939
0.00203546
0.00188343
0.00174239
0.00161148
0.00148996
0.00137707
0.00127221
0.00117474
0.00108415
0.000999884
0.000921542
0.000848631
0.000780823
0.000717686
0.000658957
0.000604253
0.000553365
0.000505952
0.00046185
0.000420756
0.00038254
0.000346936
0.000313839
0.00028302
0.000254388
0.000227755
0.000203031
0.000180081
0.000158793
0.000139103
0.000120849
0.000104069
8.85101e-05
7.4334e-05
6.12132e-05
4.93286e-05
3.85079e-05
2.85301e-05
2.00358e-05
1.14097e-05
9.49941e-06
9.97315e-06
1.43915e-05
2.16996e-05
1.90507e-05
3.10447e-05
2.78951e-05
3.39448e-05
3.81743e-05
3.9335e-05
5.8939e-05
5.41306e-05
5.39086e-05
4.41105e-05
4.02968e-05
9.429e-05
8.98625e-05
9.79597e-05
7.91413e-05
4.62395e-05
0.000106688
0.000115934
0.000128989
9.4102e-05
6.42009e-05
9.01699e-05
8.08958e-05
2.17863e-05
2.31617e-05
6.11482e-05
5.31206e-05
3.39898e-05
2.74421e-06
0.512081
0.468282
0.397033
0.325264
0.264396
0.216378
0.179526
0.151228
0.129162
0.111613
0.0973831
0.0856459
0.0758217
0.0674965
0.0603677
0.054209
0.0488477
0.0441498
0.0400095
0.0363423
0.0330797
0.0301657
0.027554
0.0252058
0.0230885
0.0211747
0.0194408
0.0178666
0.0164345
0.0151297
0.0139387
0.01285
0.0118536
0.0109405
0.0101026
0.00933301
0.00862541
0.0079742
0.00737436
0.00682138
0.00631121
0.00584021
0.00540505
0.00500278
0.00463067
0.00428628
0.00396736
0.00367191
0.00339804
0.0031441
0.00290849
0.00268986
0.00248685
0.00229835
0.00212319
0.00196045
0.00180913
0.00166849
0.00153763
0.00141596
0.0013027
0.00119737
0.00109927
0.00100803
0.000923026
0.000843968
0.000770299
0.000701794
0.00063796
0.000578618
0.000523341
0.000471978
0.000424175
0.000379783
0.000338542
0.000300259
0.000264823
0.000231908
0.000201658
0.000173473
0.000147881
0.000123944
0.00010244
8.25581e-05
6.43154e-05
4.88112e-05
3.23759e-05
2.24492e-05
1.36641e-05
2.26666e-05
3.5433e-05
2.84808e-05
5.46735e-05
4.64137e-05
6.36837e-05
6.1997e-05
7.05195e-05
0.000115774
0.000105383
0.000111254
8.24042e-05
7.4396e-05
0.000188518
0.000184396
0.000212521
0.000153614
7.91003e-05
0.000204806
0.000242652
0.000278837
0.000176497
0.000122414
0.000183458
0.000164629
3.94861e-05
5.06739e-05
0.000118272
9.89842e-05
7.07712e-05
7.0113e-06
0.504041
0.490774
0.452878
0.402513
0.350148
0.301491
0.259
0.223111
0.19323
0.168414
0.147721
0.130339
0.115615
0.103038
0.0922113
0.0828234
0.0746311
0.0674411
0.0610982
0.055477
0.0504748
0.0460072
0.0420036
0.0384051
0.035162
0.0322318
0.0295784
0.0271707
0.0249819
0.0229885
0.0211703
0.0195093
0.01799
0.0165984
0.0153224
0.014151
0.0130747
0.0120846
0.0111732
0.0103334
0.00955905
0.00884451
0.0081847
0.00757505
0.00701137
0.00648993
0.00600727
0.00556031
0.00514618
0.00476233
0.00440634
0.00407613
0.00376961
0.0034851
0.00322081
0.00297535
0.00274717
0.00253515
0.00233793
0.0021546
0.00198397
0.00182533
0.0016776
0.00154021
0.00141224
0.00129321
0.00118231
0.00107918
0.000983073
0.00089372
0.000810468
0.000733097
0.000661051
0.000594127
0.000531903
0.000474109
0.000420567
0.000370756
0.00032498
0.000282147
0.000243377
0.000206753
0.000174133
0.000143486
0.000115601
9.17754e-05
6.58437e-05
5.16817e-05
2.46395e-05
2.99829e-05
4.76783e-05
3.56054e-05
7.97034e-05
6.36266e-05
9.878e-05
8.28706e-05
0.000102889
0.000184197
0.000167164
0.000185133
0.000129109
0.00011051
0.000301542
0.00030311
0.000364708
0.000245909
0.00010781
0.000315265
0.000405103
0.000477085
0.000276919
0.000184471
0.000296028
0.000273214
5.50991e-05
8.69944e-05
0.000183946
0.000153363
0.000116211
1.33962e-05
0.487866
0.483062
0.464868
0.434988
0.398371
0.359319
0.320925
0.285089
0.252729
0.224093
0.199033
0.177214
0.158236
0.141707
0.127268
0.114613
0.103477
0.0936424
0.0849244
0.0771695
0.0702488
0.0640538
0.0584929
0.0534882
0.0489732
0.044891
0.0411926
0.0378355
0.0347829
0.0320027
0.0294667
0.0271503
0.0250316
0.0230915
0.0213128
0.0196804
0.0181808
0.0168019
0.0155329
0.014364
0.0132865
0.0122926
0.0113751
0.0105277
0.00974441
0.00902008
0.00834983
0.00772937
0.00715465
0.00662214
0.00612842
0.00567058
0.00524574
0.00485149
0.00448537
0.00414541
0.00382947
0.00353596
0.00326301
0.00300933
0.00277328
0.00255382
0.0023495
0.00215951
0.00198254
0.00181796
0.00166462
0.00152201
0.00138911
0.00126553
0.00115037
0.00104332
0.000943597
0.000850934
0.000764716
0.000684595
0.000610304
0.000541102
0.000477491
0.000417761
0.000363822
0.000312441
0.000267008
0.000223701
0.000184647
0.000150959
0.000113789
9.46207e-05
5.39092e-05
4.87873e-05
5.71197e-05
3.97673e-05
0.000104765
7.76387e-05
0.000137987
9.95057e-05
0.000133639
0.000260933
0.000236444
0.000273412
0.000183556
0.000145221
0.000425989
0.000440416
0.000549566
0.000353494
0.000127745
0.000428679
0.000596162
0.000715945
0.00039406
0.000242214
0.000419176
0.000404725
6.45581e-05
0.000130154
0.00025331
0.000215062
0.000167165
2.17827e-05
0.47368
0.468004
0.457073
0.439176
0.41543
0.387708
0.357902
0.327646
0.298167
0.270275
0.244429
0.220826
0.19948
0.180296
0.163113
0.147748
0.134013
0.121726
0.110723
0.100854
0.0919874
0.084007
0.0768113
0.0703114
0.0644298
0.0590988
0.054259
0.0498585
0.0458515
0.042198
0.0388623
0.0358131
0.0330226
0.030466
0.0281214
0.025969
0.0239914
0.0221727
0.0204987
0.0189569
0.0175357
0.0162248
0.0150147
0.0138972
0.0128644
0.0119095
0.011026
0.0102082
0.00945094
0.00874937
0.00809903
0.00749607
0.00693666
0.00641765
0.00593574
0.00548834
0.00507264
0.0046865
0.00432747
0.00399382
0.00368341
0.00339485
0.00312622
0.00287644
0.0026438
0.00242745
0.00222587
0.00203839
0.00186366
0.00170117
0.00154971
0.00140889
0.00127766
0.00115568
0.0010421
0.00093651
0.000838518
0.00074714
0.000663107
0.000583979
0.000512628
0.000444201
0.000384032
0.000325962
0.000274036
0.000228705
0.000178495
0.000153295
9.68251e-05
8.2552e-05
7.1708e-05
4.03494e-05
0.000128379
8.64075e-05
0.000179817
0.000110822
0.000160059
0.000342646
0.000310015
0.000373565
0.000244367
0.000175491
0.000555129
0.000590947
0.000761274
0.000472919
0.000154655
0.000536957
0.000808851
0.000986187
0.000525394
0.000288257
0.000544482
0.000556386
6.48389e-05
0.000177695
0.000321965
0.000282593
0.000220835
3.32543e-05
0.462395
0.45407
0.44423
0.431165
0.414599
0.394975
0.373023
0.349589
0.325491
0.301429
0.277957
0.255479
0.234263
0.214462
0.196139
0.179293
0.163875
0.149808
0.137
0.125353
0.114766
0.105145
0.0963979
0.0884419
0.0812006
0.0746043
0.0685906
0.063103
0.0580909
0.0535088
0.049316
0.045476
0.041956
0.0387266
0.0357614
0.0330366
0.0305307
0.0282246
0.0261008
0.0241436
0.0223387
0.0206733
0.0191356
0.0177152
0.0164022
0.0151881
0.0140646
0.0130248
0.0120617
0.0111695
0.0103424
0.00957565
0.00886429
0.0082043
0.00759155
0.00702271
0.0064942
0.0060033
0.0055469
0.00512278
0.00472822
0.00436144
0.00402003
0.00370256
0.00340689
0.0031319
0.00287568
0.00263736
0.00241522
0.00220861
0.00201599
0.00183685
0.00166984
0.00151456
0.00136989
0.00123532
0.00111034
0.000993683
0.000886339
0.000785029
0.000693747
0.000605733
0.000528658
0.000453488
0.000386785
0.000327768
0.000262626
0.000229998
0.000155496
0.000137967
0.000101879
4.19633e-05
0.000148904
8.77257e-05
0.000222581
0.000115882
0.000179493
0.000425961
0.000384544
0.000482703
0.000309568
0.000198575
0.00068304
0.000749628
0.000993207
0.000600093
0.000210746
0.000633657
0.00103624
0.00127724
0.000667566
0.000316234
0.000664398
0.000724645
5.43977e-05
0.000226845
0.000386062
0.000354248
0.000274863
4.67008e-05
0.453069
0.442679
0.432086
0.420237
0.406666
0.391332
0.374414
0.356218
0.337117
0.317496
0.297716
0.278099
0.258917
0.240386
0.222671
0.205883
0.190091
0.175325
0.161586
0.148851
0.137082
0.126231
0.116243
0.107059
0.098622
0.0908741
0.0837606
0.0772298
0.0712331
0.0657257
0.0606659
0.0560155
0.0517396
0.0478062
0.044186
0.0408526
0.0377815
0.0349507
0.0323401
0.0299313
0.0277077
0.025654
0.0237563
0.0220021
0.0203796
0.0188784
0.0174888
0.016202
0.0150098
0.013905
0.0128807
0.0119307
0.0110493
0.0102315
0.00947201
0.0087669
0.00811173
0.00750313
0.00693727
0.0064114
0.00592215
0.00546731
0.0050439
0.00465015
0.00428342
0.0039423
0.00362443
0.00332873
0.00305306
0.00279661
0.00255745
0.00233499
0.0021275
0.00193451
0.00175461
0.00158718
0.00143155
0.00128617
0.00115229
0.00102572
0.000911682
0.00080127
0.000704842
0.000609981
0.000526368
0.000451339
0.000369255
0.000327399
0.000232597
0.000210587
0.000161461
7.31109e-05
0.000175374
7.92288e-05
0.000264426
0.000113803
0.000189296
0.000507521
0.00045662
0.000597591
0.000376661
0.000211979
0.000804768
0.000911706
0.00123809
0.000730598
0.000292126
0.000714307
0.00127128
0.00157753
0.000816868
0.000321164
0.000772909
0.000905155
4.45158e-05
0.000274732
0.000442349
0.000428187
0.000327404
6.14027e-05
0.445015
0.433301
0.421796
0.409918
0.397304
0.383817
0.369473
0.354366
0.338641
0.322462
0.306002
0.289429
0.272908
0.25659
0.24061
0.225087
0.210119
0.195784
0.182138
0.169217
0.15704
0.14561
0.134919
0.124945
0.115664
0.107042
0.0990461
0.0916386
0.0847827
0.0784414
0.072579
0.0671612
0.0621551
0.0575298
0.0532565
0.0493081
0.0456593
0.0422869
0.0391693
0.0362866
0.0336204
0.0311537
0.0288709
0.0267578
0.024801
0.0229886
0.0213092
0.0197528
0.0183098
0.0169716
0.0157301
0.0145782
0.0135089
0.0125162
0.011594
0.0107376
0.00994156
0.00920189
0.00851399
0.00787454
0.00727951
0.00672619
0.00621103
0.00573184
0.00528546
0.00487015
0.00448309
0.00412292
0.00378708
0.00347456
0.00318304
0.00291176
0.00265865
0.00242312
0.00220345
0.00199888
0.00180859
0.00163068
0.00146672
0.00131146
0.00117154
0.00103562
0.000917098
0.000799681
0.000696771
0.000603105
0.000501921
0.000448616
0.000331257
0.000303241
0.000238949
0.000132599
0.000217488
5.84841e-05
0.000303406
0.000103644
0.000186772
0.00058404
0.00052278
0.00071469
0.000442747
0.000213438
0.000916428
0.00107269
0.00148824
0.000860033
0.000389372
0.000776527
0.0015066
0.00187505
0.000969807
0.000299916
0.000866091
0.00109268
6.20135e-05
0.0003186
0.00048816
0.000502533
0.000377174
7.6424e-05
0.437894
0.42533
0.413125
0.400945
0.388539
0.375767
0.362597
0.349062
0.335226
0.321169
0.306972
0.292709
0.278457
0.264286
0.250268
0.236469
0.222956
0.20979
0.197028
0.184717
0.1729
0.161606
0.150858
0.140669
0.131041
0.121973
0.113453
0.105468
0.0979987
0.0910233
0.0845184
0.0784596
0.0728217
0.0675795
0.0627085
0.0581847
0.0539849
0.0500871
0.0464702
0.0431146
0.0400015
0.0371136
0.0344344
0.0319488
0.0296425
0.0275025
0.0255164
0.023673
0.0219615
0.0203726
0.0188968
0.0175262
0.0162527
0.0150694
0.0139695
0.0129473
0.0119966
0.0111127
0.0102903
0.00952537
0.00881332
0.0081509
0.00753392
0.00695981
0.00642483
0.0059269
0.00546269
0.00503056
0.0046275
0.00425228
0.00390213
0.00357616
0.00327188
0.00298858
0.0027242
0.00247784
0.00224852
0.00203392
0.00183597
0.00164828
0.00147902
0.00131419
0.00117053
0.0010274
0.000902531
0.000787292
0.00066467
0.000597261
0.000455085
0.000419114
0.000337043
0.000211222
0.000293146
7.81487e-05
0.000363651
8.42308e-05
0.000169054
0.00065233
0.000579504
0.000830224
0.000504661
0.000200899
0.00101519
0.00122823
0.0017359
0.000984425
0.00049981
0.00081994
0.00173444
0.00215816
0.00112355
0.00025167
0.000942343
0.0012809
0.000101584
0.000356009
0.000521323
0.000575461
0.00042345
9.06532e-05
0.431526
0.41839
0.405685
0.393206
0.380779
0.368281
0.355657
0.342909
0.330068
0.317186
0.304313
0.291495
0.27877
0.266171
0.253728
0.241464
0.229405
0.217576
0.206006
0.194722
0.183753
0.173126
0.162867
0.152998
0.143537
0.134498
0.125889
0.117714
0.109972
0.102658
0.0957642
0.0892791
0.0831891
0.0774791
0.0721325
0.067132
0.06246
0.0580986
0.05403
0.050237
0.0467027
0.0434108
0.0403458
0.0374928
0.0348377
0.0323672
0.0300687
0.0279304
0.0259411
0.0240907
0.0223692
0.0207677
0.0192776
0.0178914
0.0166012
0.0154008
0.0142832
0.0132432
0.0122747
0.0113733
0.0105335
0.0097517
0.00902308
0.00834466
0.00771213
0.00712307
0.00657361
0.00606186
0.0055843
0.00513947
0.00472417
0.00433731
0.003976
0.00363939
0.00332507
0.00303194
0.00275888
0.00250311
0.00226697
0.0020428
0.00184042
0.00164296
0.00147082
0.00129853
0.00114876
0.0010087
0.000862098
0.000777502
0.000608213
0.000561857
0.000459113
0.000312575
0.000397648
0.000118568
0.000431823
5.37458e-05
0.000132784
0.000709266
0.000623192
0.000940272
0.000559135
0.000172526
0.00109915
0.00137389
0.00197352
0.00110047
0.000618999
0.000845713
0.00194647
0.00241622
0.00127607
0.000216656
0.00100211
0.00146219
0.000141137
0.000384995
0.00054
0.000645267
0.000466046
0.000102855
0.425782
0.412248
0.399187
0.386462
0.373954
0.36156
0.349218
0.336903
0.324625
0.312411
0.300298
0.288322
0.276514
0.264898
0.253492
0.242306
0.231346
0.220616
0.210119
0.19986
0.189845
0.180083
0.170584
0.161362
0.152428
0.143797
0.135481
0.127489
0.11983
0.112509
0.105529
0.0988913
0.0925926
0.0866283
0.0809917
0.0756741
0.0706656
0.0659548
0.0615298
0.0573781
0.0534866
0.0498424
0.0464322
0.0432433
0.0402631
0.0374793
0.03488
0.0324541
0.0301904
0.0280789
0.0261095
0.0242733
0.022561
0.020965
0.0194768
0.0180899
0.0167968
0.0155917
0.014468
0.0134208
0.0124442
0.011534
0.0106849
0.00989357
0.00915513
0.00846687
0.00782439
0.00722553
0.00666629
0.00614498
0.00565796
0.00520395
0.00477963
0.004384
0.0040143
0.00366921
0.0033475
0.00304582
0.00276704
0.00250205
0.00226253
0.00202846
0.00182421
0.00161904
0.00144116
0.00127273
0.00109937
0.000994097
0.000795323
0.000735658
0.00060912
0.000440641
0.000524311
0.000168453
0.000527698
5.19485e-05
9.18306e-05
0.000751636
0.000650099
0.00104088
0.000602917
0.000143938
0.00116698
0.00150499
0.00219398
0.00120564
0.000740988
0.000855825
0.00214101
0.00264662
0.0014259
0.000254332
0.00104711
0.0016276
0.000173876
0.000404161
0.000542471
0.000717983
0.000512148
0.000111725
0.420569
0.406751
0.393434
0.380518
0.36792
0.355558
0.343371
0.331323
0.319402
0.307615
0.295982
0.284529
0.273282
0.262262
0.251489
0.240974
0.230722
0.220733
0.211003
0.201526
0.192296
0.183306
0.174553
0.166033
0.157748
0.149699
0.14189
0.134327
0.127016
0.119961
0.11317
0.106646
0.100392
0.0944119
0.0887047
0.0832695
0.0781035
0.0732025
0.0685608
0.0641719
0.060028
0.0561208
0.0524412
0.04898
0.0457272
0.0426732
0.0398081
0.0371222
0.0346057
0.0322495
0.0300441
0.0279812
0.0260518
0.0242484
0.0225626
0.0209878
0.0195162
0.018142
0.0168581
0.0156596
0.01454
0.013495
0.0125188
0.0116077
0.0107565
0.0099622
0.0092199
0.00852725
0.00787977
0.00727561
0.00671065
0.00618347
0.00569034
0.00523007
0.00479961
0.00439734
0.004022
0.00366958
0.00334358
0.00303328
0.00275243
0.00247756
0.00223736
0.00199537
0.00178592
0.00158531
0.0013822
0.00125241
0.00102166
0.000945296
0.00079163
0.000599915
0.000676836
0.000237624
0.000668786
0.000121793
0.000107777
0.000815063
0.00066234
0.00113395
0.000632894
0.000150533
0.00121754
0.00161642
0.00239067
0.00129802
0.000858828
0.000852199
0.00231598
0.00284801
0.00157158
0.000332882
0.00107911
0.00176709
0.000192526
0.000412691
0.000526923
0.000803599
0.000572443
0.000125423
0.415811
0.401789
0.388286
0.375226
0.362547
0.350184
0.338084
0.326208
0.314531
0.303044
0.291752
0.280667
0.269806
0.259185
0.248821
0.238729
0.228916
0.219387
0.210141
0.201173
0.192476
0.184039
0.175852
0.167905
0.160187
0.152692
0.145413
0.138346
0.131489
0.124842
0.118404
0.112178
0.106166
0.100369
0.0947913
0.0894332
0.0842961
0.0793802
0.0746846
0.0702076
0.0659463
0.0618972
0.0580556
0.0544165
0.0509735
0.0477206
0.0446506
0.0417567
0.0390309
0.0364664
0.034055
0.0317897
0.0296627
0.0276671
0.0257952
0.0240408
0.0223966
0.0208569
0.0194147
0.0180651
0.0168015
0.0156195
0.0145132
0.0134788
0.0125107
0.0116058
0.0107589
0.00996742
0.00922655
0.00853431
0.00788618
0.0072806
0.0067135
0.00618346
0.00568726
0.00522288
0.00478918
0.0043813
0.00400362
0.00364353
0.00331715
0.00299721
0.00271715
0.00243426
0.00218961
0.00195286
0.0017168
0.00155838
0.00129301
0.00119616
0.00101182
0.000795448
0.000859549
0.00035797
0.000831785
0.000219646
0.000141328
0.000880307
0.000686057
0.00124488
0.000646213
0.000181523
0.00124934
0.00170252
0.00255734
0.001376
0.000965282
0.000835799
0.00245463
0.0030061
0.00171093
0.000398961
0.00109871
0.00187039
0.000190313
0.000410274
0.000491283
0.000888727
0.000636034
0.000179842
0.411448
0.397278
0.383639
0.370472
0.357726
0.345351
0.3333
0.321536
0.31003
0.298763
0.287728
0.276925
0.26636
0.256041
0.245981
0.236189
0.226677
0.21745
0.208511
0.199862
0.191497
0.18341
0.175591
0.16803
0.160716
0.153636
0.146779
0.140136
0.133697
0.127454
0.121402
0.115536
0.109852
0.10435
0.0990274
0.0938847
0.088922
0.0841399
0.0795387
0.0751185
0.0708792
0.06682
0.0629395
0.059236
0.0557066
0.0523485
0.0491577
0.0461302
0.043261
0.0405455
0.0379779
0.0355532
0.0332649
0.031108
0.0290758
0.0271634
0.0253639
0.0236727
0.0220832
0.0205909
0.0191894
0.0178749
0.0166412
0.0154848
0.0144
0.0133838
0.0124306
0.0115382
0.0107012
0.0099178
0.00918309
0.0084954
0.00785049
0.00724668
0.00668071
0.00615003
0.00565389
0.00518634
0.00475295
0.00433887
0.00396304
0.00359393
0.00327018
0.0029424
0.00265887
0.00238202
0.00210963
0.00191839
0.00161559
0.00149422
0.00127543
0.00103287
0.00107745
0.000534396
0.00102132
0.000349282
0.000234561
0.00100014
0.000748624
0.0013486
0.000648451
0.000215719
0.00125989
0.00176015
0.00269081
0.00143782
0.00105361
0.000805839
0.00254719
0.00311307
0.00184049
0.000445199
0.00110438
0.00192813
0.000161688
0.000396946
0.000433116
0.00097306
0.000704727
0.000279277
0.407428
0.393152
0.379414
0.366168
0.353372
0.340982
0.32896
0.31727
0.305885
0.29478
0.283942
0.27336
0.263032
0.252961
0.243148
0.2336
0.224325
0.215327
0.206612
0.198181
0.190034
0.182169
0.17458
0.16726
0.160199
0.153387
0.146814
0.140467
0.134335
0.128407
0.122674
0.117125
0.111754
0.106553
0.101517
0.096642
0.0919235
0.0873597
0.0829488
0.0786897
0.0745816
0.0706241
0.0668163
0.063158
0.0596479
0.0562852
0.0530681
0.049995
0.0470632
0.0442705
0.0416132
0.0390887
0.0366923
0.034421
0.0322696
0.0302347
0.0283109
0.0264946
0.0247801
0.0231639
0.0216403
0.0202061
0.0188553
0.0175852
0.01639
0.0152671
0.0142111
0.0132198
0.0122879
0.0114134
0.0105917
0.00982073
0.00909641
0.00841673
0.00777865
0.00717894
0.00661755
0.00608714
0.00559495
0.00512343
0.00469487
0.00427298
0.00390214
0.0035258
0.00319992
0.00287924
0.00256713
0.00233903
0.00199585
0.00184588
0.00158868
0.00131831
0.00133624
0.000753958
0.0012425
0.000515393
0.000395175
0.00116243
0.000837599
0.00144626
0.000686489
0.000296695
0.00124508
0.00181004
0.00281069
0.0014813
0.00111832
0.000759278
0.002585
0.00316148
0.00197138
0.000482094
0.00109208
0.00193292
0.000115321
0.000384333
0.000359189
0.00106495
0.000780315
0.000404338
0.403709
0.389356
0.375549
0.362247
0.349413
0.337012
0.325008
0.31337
0.302071
0.291087
0.280399
0.269992
0.259857
0.249989
0.240386
0.231047
0.221975
0.213173
0.204644
0.196389
0.188411
0.180708
0.173277
0.166115
0.159214
0.152569
0.14617
0.140007
0.134071
0.128351
0.122836
0.117516
0.112381
0.107422
0.102629
0.0979953
0.0935138
0.0891787
0.0849847
0.0809281
0.0770054
0.0732141
0.069552
0.0660178
0.0626098
0.0593273
0.0561689
0.053134
0.0502208
0.0474287
0.0447554
0.0421998
0.0397592
0.0374321
0.035215
0.0331061
0.0311013
0.0291986
0.0273933
0.0256834
0.0240639
0.0225327
0.0210845
0.0197173
0.0184258
0.0172081
0.0160591
0.0149768
0.0139562
0.0129957
0.0120906
0.011239
0.0104371
0.00968239
0.00897253
0.00830335
0.007676
0.00708132
0.00652884
0.00599776
0.00551441
0.00503715
0.00461667
0.00418892
0.00381768
0.00345012
0.00309506
0.0028266
0.00244002
0.00225768
0.00195798
0.00165825
0.00164219
0.0010228
0.00150125
0.000723223
0.000593073
0.00135169
0.000937765
0.00162383
0.000798088
0.000425266
0.00124197
0.0018331
0.00289985
0.00150869
0.00116044
0.000690474
0.00256039
0.00314433
0.00212711
0.000537097
0.00105527
0.00188154
7.3781e-05
0.000413456
0.000328911
0.00120226
0.000864554
0.00055571
0.400255
0.38585
0.371994
0.358653
0.345794
0.333386
0.321396
0.309796
0.298562
0.287668
0.277095
0.266825
0.256845
0.247146
0.237719
0.228561
0.219668
0.21104
0.202678
0.194581
0.18675
0.179185
0.171883
0.164843
0.15806
0.151529
0.145244
0.139198
0.133382
0.127789
0.122409
0.117233
0.11225
0.107452
0.10283
0.0983734
0.0940747
0.0899259
0.0859194
0.0820489
0.0783084
0.0746929
0.0711979
0.0678199
0.0645554
0.0614023
0.058358
0.0554212
0.0525898
0.049863
0.047239
0.0447172
0.0422954
0.0399733
0.0377484
0.03562
0.0335852
0.0316433
0.0297907
0.0280267
0.0263471
0.0247512
0.0232344
0.0217958
0.0204307
0.019138
0.0179132
0.0167548
0.0156585
0.0146228
0.0136436
0.012719
0.0118458
0.0110211
0.0102436
0.00950783
0.00881686
0.00815918
0.00754742
0.0069568
0.00641854
0.00588505
0.00541381
0.0049332
0.00451457
0.00409832
0.00369754
0.00338632
0.00295349
0.0027357
0.00238955
0.00205908
0.00200195
0.00134722
0.00180425
0.000978348
0.000834591
0.00157214
0.00105289
0.00182637
0.000932224
0.000607894
0.0012999
0.00186732
0.00295613
0.00159279
0.00125004
0.000590679
0.00249137
0.00307954
0.00226626
0.000646748
0.00105308
0.00181893
0.000122655
0.000479999
0.00032165
0.00135154
0.000959171
0.000732671
0.397036
0.382595
0.368708
0.355342
0.342468
0.330057
0.31808
0.306512
0.295327
0.284503
0.27402
0.263859
0.254004
0.244441
0.235163
0.226158
0.217422
0.20895
0.200739
0.192787
0.185093
0.177655
0.170472
0.163541
0.156859
0.150422
0.144226
0.138265
0.132533
0.127022
0.121727
0.116638
0.111748
0.107049
0.102531
0.098187
0.0940079
0.0899857
0.0861123
0.0823802
0.0787821
0.0753117
0.0719624
0.068729
0.0656063
0.0625902
0.0596763
0.056862
0.0541437
0.0515196
0.0489868
0.0465444
0.0441898
0.0419226
0.0397402
0.0376427
0.0356273
0.0336942
0.0318403
0.0300658
0.0283675
0.0267453
0.0251956
0.0237183
0.0223096
0.0209692
0.0196932
0.0184809
0.0173287
0.0162352
0.0151975
0.0142133
0.0132808
0.0123961
0.0115598
0.0107648
0.0100167
0.00930094
0.00863432
0.00798726
0.00739679
0.00680878
0.00628786
0.00575521
0.00528871
0.00482399
0.00437564
0.00402105
0.00353968
0.00328461
0.00288861
0.00252645
0.00242205
0.0017332
0.00215871
0.00128644
0.0011268
0.00182855
0.00118783
0.00204928
0.00108482
0.000817945
0.00143857
0.00195964
0.00299567
0.00168586
0.0013541
0.000500852
0.00241728
0.00298035
0.0023804
0.000766435
0.00114512
0.00182146
0.000261357
0.000564704
0.000322086
0.00151254
0.00106592
0.000933086
0.394025
0.379563
0.365657
0.352277
0.339397
0.326988
0.315025
0.303482
0.292339
0.281571
0.271159
0.261085
0.25133
0.241881
0.232724
0.22385
0.215249
0.206914
0.198839
0.191019
0.183452
0.176135
0.169064
0.162238
0.155652
0.149303
0.143188
0.137301
0.131638
0.126192
0.120959
0.115931
0.111101
0.106463
0.10201
0.097733
0.0936256
0.0896802
0.0858892
0.0822454
0.0787413
0.0753703
0.0721254
0.0690006
0.0659895
0.063087
0.0602873
0.0575865
0.0549796
0.0524635
0.0500339
0.047689
0.0454249
0.0432406
0.0411326
0.0391008
0.0371418
0.0352559
0.03344
0.0316945
0.0300163
0.028406
0.0268603
0.0253797
0.0239611
0.0226046
0.0213072
0.0200684
0.0188857
0.0177578
0.0166829
0.0156585
0.0146843
0.0137553
0.0128745
0.0120325
0.0112385
0.0104741
0.00976134
0.00906497
0.00842859
0.00779138
0.00722481
0.00664419
0.00613155
0.0056216
0.00512535
0.00472947
0.00419841
0.00390616
0.00345816
0.00306406
0.00290806
0.00218557
0.00257184
0.00165276
0.0014772
0.00212598
0.00134838
0.00229978
0.00126272
0.00106315
0.00160268
0.00206169
0.00313416
0.00189846
0.00156036
0.00060178
0.0024187
0.00295642
0.00257466
0.00088518
0.00123999
0.0018298
0.000444824
0.000668174
0.000335549
0.00168463
0.00118655
0.00115365
0.391199
0.376727
0.362812
0.349427
0.336547
0.324145
0.312197
0.300679
0.28957
0.278849
0.268496
0.258492
0.248819
0.239463
0.230409
0.221644
0.213159
0.204942
0.196988
0.189288
0.181838
0.174633
0.167669
0.160943
0.15445
0.148187
0.14215
0.136335
0.130737
0.125351
0.120173
0.115196
0.110414
0.105822
0.101412
0.0971799
0.0931175
0.0892187
0.0854768
0.0818852
0.0784372
0.0751265
0.0719464
0.0688911
0.065954
0.0631298
0.0604123
0.0577969
0.0552778
0.0528512
0.0505118
0.0482567
0.0460809
0.0439827
0.0419575
0.0400042
0.0381189
0.036301
0.0345469
0.0328568
0.0312272
0.0296584
0.0281474
0.0266945
0.025297
0.0239549
0.022666
0.0214296
0.0202443
0.0191083
0.0180214
0.01698
0.0159862
0.0150331
0.0141269
0.0132549
0.0124312
0.0116325
0.0108868
0.0101528
0.00948098
0.0088043
0.00819967
0.00757937
0.00702523
0.00647733
0.00593511
0.00550361
0.00492381
0.00459697
0.00409728
0.00367189
0.00346329
0.00270661
0.00304982
0.00208138
0.00189288
0.00246955
0.00154117
0.00258587
0.00147325
0.00135203
0.00179024
0.00217582
0.00326703
0.00213207
0.00177997
0.000717411
0.00241837
0.00294358
0.00277663
0.00100754
0.00131687
0.00183715
0.000657126
0.000787429
0.000443447
0.00186637
0.00132258
0.00139026
0.38854
0.374066
0.36015
0.346768
0.333893
0.321502
0.30957
0.298076
0.286999
0.276318
0.266014
0.256068
0.246464
0.237184
0.228215
0.219543
0.211156
0.203043
0.195194
0.1876
0.180256
0.173155
0.166291
0.159659
0.153256
0.147077
0.141118
0.135374
0.129841
0.124514
0.119389
0.114461
0.109724
0.105172
0.100801
0.0966036
0.0925749
0.0887089
0.0849994
0.0814408
0.0780267
0.0747518
0.0716096
0.0685951
0.0657018
0.062925
0.0602586
0.0576979
0.0552371
0.0528723
0.0505976
0.0484099
0.0463036
0.0442762
0.0423226
0.0404409
0.0386264
0.0368778
0.0351909
0.0335649
0.0319961
0.0304841
0.0290256
0.0276202
0.0262655
0.0249608
0.0237044
0.0224948
0.0213318
0.0202123
0.0191381
0.0181035
0.0171136
0.0161585
0.0152485
0.014367
0.0135329
0.012718
0.0119564
0.011201
0.010508
0.00980624
0.00917476
0.00852794
0.00794017
0.00736645
0.00678317
0.00632597
0.00570163
0.00534578
0.00479866
0.00434362
0.00408664
0.00329406
0.00359601
0.00257385
0.002379
0.00286387
0.00177361
0.00291651
0.00172417
0.00169369
0.0020002
0.00230536
0.00340019
0.0023901
0.00202483
0.000836289
0.00241923
0.00292889
0.0029627
0.0011389
0.00137027
0.00184822
0.000894578
0.000916432
0.000652367
0.00205558
0.00147498
0.0016384
0.38603
0.371561
0.357651
0.344276
0.331412
0.319035
0.307121
0.295651
0.284603
0.273958
0.263696
0.253801
0.244254
0.235039
0.226142
0.217548
0.209245
0.20122
0.193462
0.185963
0.178714
0.171706
0.164934
0.158392
0.152074
0.145976
0.140092
0.134418
0.12895
0.123683
0.118612
0.113733
0.10904
0.104529
0.100194
0.0960305
0.0920324
0.0881946
0.0845114
0.0809779
0.0775881
0.074337
0.071219
0.0682292
0.0653619
0.0626127
0.0599756
0.0574467
0.0550203
0.0526926
0.0504581
0.0483134
0.046253
0.0442743
0.0423719
0.0405435
0.0387841
0.0370919
0.0354623
0.0338937
0.0323823
0.0309265
0.0295233
0.028171
0.0268676
0.0256108
0.0244
0.023232
0.0221079
0.0210224
0.0199797
0.0189714
0.0180054
0.0170686
0.0161752
0.0153041
0.0144796
0.0136682
0.0129091
0.0121512
0.0114535
0.010745
0.0101005
0.00944496
0.00883434
0.00825175
0.00763577
0.00716698
0.00650683
0.00613036
0.00554588
0.00506362
0.00476994
0.00393851
0.00420825
0.00312734
0.00293628
0.00331214
0.00205361
0.00330116
0.00202294
0.00209647
0.00223221
0.00245411
0.00354176
0.00267553
0.00230608
0.000951024
0.00242711
0.0029206
0.00313244
0.00128552
0.0014
0.00186869
0.00115174
0.00104792
0.000886454
0.00224965
0.00164387
0.00189329
0.383654
0.369195
0.355296
0.341933
0.329083
0.316723
0.30483
0.293383
0.282364
0.271751
0.261528
0.251677
0.242179
0.23302
0.224184
0.215657
0.207425
0.199476
0.191798
0.184381
0.177216
0.170293
0.163605
0.157145
0.150907
0.144886
0.139075
0.133469
0.128065
0.122857
0.117841
0.113011
0.108364
0.103894
0.0995964
0.0954664
0.0914988
0.0876886
0.0840307
0.0805201
0.0771515
0.0739203
0.0708211
0.0678493
0.0649998