/*--------------------------------*- C++ -*----------------------------------*\
| =========                 |                                                 |
| \\      /  F ield         | OpenFOAM: The Open Source CFD Toolbox           |
|  \\    /   O peration     | Version:  2412                                  |
|   \\  /    A nd           | Website:  www.openfoam.com                      |
|    \\/     M anipulation  |                                                 |
\*---------------------------------------------------------------------------*/
FoamFile
{
    version     2.0;
    format      ascii;
    arch        "LSB;label=32;scalar=64";
    class       surfaceScalarField;
    location    "1.675";
    object      phi;
}
// * * * * * * * * * * * * * * * * * * * * * * * * * * * * * * * * * * * * * //

dimensions      [0 3 -1 0 0 0 0];

oriented        oriented;

internalField   nonuniform List<scalar> 
24930
(
0.0179667
0.0127574
-0.0307365
0.0106016
0.00736513
0.00695028
0.00365131
0.00517384
0.00177643
0.00420157
0.000972267
0.00357853
0.000623035
0.00313251
0.00044601
0.00279295
0.000339562
0.00252373
0.000269216
0.00230378
0.000219941
0.00211995
0.000183824
0.00196351
0.00015644
0.0018284
0.000135109
0.00171027
0.000118124
0.00160592
0.000104352
0.00151291
9.30088e-05
0.00142937
8.35387e-05
0.00135384
7.55392e-05
0.00128513
6.87119e-05
0.0012223
6.28314e-05
0.00116458
5.7725e-05
0.00111132
5.32582e-05
0.001062
4.93251e-05
0.00101616
4.58414e-05
0.00097343
4.27389e-05
0.000933471
3.99624e-05
0.000896007
3.74667e-05
0.000860795
3.52141e-05
0.000827623
3.31734e-05
0.000796305
3.13182e-05
0.000766679
2.96266e-05
0.000738598
2.80796e-05
0.000711936
2.66614e-05
0.000686577
2.53578e-05
0.000662417
2.41575e-05
0.000639365
2.30496e-05
0.000617337
2.20258e-05
0.000596257
2.10775e-05
0.000576056
2.0199e-05
0.00055667
1.93828e-05
0.000538043
1.86255e-05
0.000520121
1.79201e-05
0.000502854
1.72652e-05
0.000486199
1.66538e-05
0.000470112
1.60867e-05
0.000454555
1.5556e-05
0.00043949
1.50654e-05
0.000424885
1.46048e-05
0.000410704
1.41816e-05
0.000396922
1.37827e-05
0.000383503
1.34201e-05
0.000370428
1.30759e-05
0.00035766
1.27685e-05
0.000345188
1.24734e-05
0.000332972
1.22169e-05
0.000321006
1.19659e-05
0.000309249
1.17574e-05
0.000297702
1.15466e-05
0.000286318
1.13838e-05
0.000275109
1.12093e-05
0.000264018
1.10905e-05
0.000253069
1.09485e-05
0.000242197
1.08728e-05
0.000231438
1.07595e-05
0.000220711
1.07268e-05
0.000210074
1.06382e-05
0.000199426
1.06483e-05
0.000188848
1.05792e-05
0.000178219
1.06305e-05
0.000167646
1.05738e-05
0.000156982
1.06645e-05
0.000146373
1.0611e-05
0.000135636
1.07376e-05
0.000124962
1.06752e-05
0.000114131
1.08321e-05
0.000103387
1.07451e-05
9.24632e-05
1.09244e-05
8.1671e-05
1.07924e-05
7.06888e-05
1.0982e-05
5.99074e-05
1.07808e-05
4.89381e-05
1.09684e-05
3.82643e-05
1.06727e-05
2.74218e-05
1.08417e-05
1.6999e-05
1.04225e-05
6.46093e-06
1.05382e-05
-3.54613e-06
1.00079e-05
-1.35854e-05
1.00405e-05
-2.29928e-05
9.40893e-06
-3.23066e-05
9.31501e-06
-4.09955e-05
8.68952e-06
-4.94775e-05
8.48185e-06
-5.67806e-05
7.30195e-06
-6.55865e-05
8.80543e-06
-6.92494e-05
3.66339e-06
-8.09915e-05
1.17457e-05
-7.84287e-05
-2.56061e-06
-9.16896e-05
1.32655e-05
-9.76263e-05
5.9408e-06
-8.71585e-05
-1.04662e-05
-0.000113545
2.63938e-05
-8.32279e-05
-3.03168e-05
-0.000158288
7.507e-05
-5.79748e-05
-0.00010034
-0.000186725
0.000128757
-0.000132743
-5.39254e-05
-2.44029e-05
-0.000108358
-0.000429474
0.00040514
4.58391e-05
-0.000475362
-0.000422728
0.000468567
-0.000247067
-0.000175683
2.80517e-05
-0.000275178
-0.0011153
0.00114343
0.000145516
-0.00126091
-0.000600272
0.000745733
-0.00107159
0.000471474
0.000324351
-0.00139601
-0.000668097
0.000992438
-5.22418e-06
-0.000662873
0.000622833
-0.00062805
0.00047654
0.0336779
0.0163284
-0.0372489
0.0277388
0.0133042
0.0221845
0.00920562
0.0179093
0.00605161
0.0148626
0.00401897
0.0127018
0.00278387
0.0111144
0.00203331
0.00989723
0.00155677
0.00892988
0.00123655
0.00813945
0.00101037
0.00747916
0.000844109
0.0069177
0.00071789
0.0064333
0.00061951
0.00601026
0.000541156
0.005637
0.000477612
0.00530473
0.000425279
0.00500667
0.000381599
0.0047375
0.000344714
0.00449297
0.000313247
0.00426965
0.000286157
0.00406474
0.000262644
0.00387592
0.000242088
0.00370126
0.000223998
0.00353912
0.000207985
0.00338813
0.000193732
0.00324712
0.000180985
0.00311506
0.000169533
0.00299107
0.000159203
0.0028744
0.00014985
0.00276437
0.000141351
0.00266039
0.000133606
0.00256194
0.000126526
0.00246856
0.000120039
0.00237984
0.000114078
0.0022954
0.000108591
0.00221491
0.000103529
0.00213808
9.88519e-05
0.00206463
9.45218e-05
0.00199432
9.05097e-05
0.00192691
8.67845e-05
0.00186221
8.33263e-05
0.00180002
8.01078e-05
0.00174016
7.7117e-05
0.00168248
7.43281e-05
0.00162683
7.17372e-05
0.00157307
6.93171e-05
0.00152106
6.70728e-05
0.00147069
6.49731e-05
0.00142184
6.30339e-05
0.00137441
6.12162e-05
0.00132828
5.95493e-05
0.00128338
5.79826e-05
0.00123958
5.6562e-05
0.00119684
5.52206e-05
0.00115503
5.40261e-05
0.00111411
5.2889e-05
0.00107396
5.19052e-05
0.00103455
5.09549e-05
0.000995769
5.01696e-05
0.000957589
4.939e-05
0.000919885
4.87936e-05
0.000882664
4.81697e-05
0.000845781
4.77554e-05
0.000809267
4.72736e-05
0.000772956
4.7038e-05
0.00073691
4.66844e-05
0.000700936
4.6623e-05
0.000665139
4.6378e-05
0.00062929
4.64809e-05
0.000593547
4.63185e-05
0.00055764
4.65729e-05
0.000521794
4.64596e-05
0.000485688
4.68458e-05
0.00044963
4.67353e-05
0.000413241
4.72238e-05
0.000376931
4.70568e-05
0.000340252
4.76053e-05
0.000303745
4.73015e-05
0.000266878
4.78504e-05
0.000230346
4.73146e-05
0.000193514
4.78011e-05
0.000157256
4.69306e-05
0.000120825
4.72722e-05
8.53015e-05
4.59456e-05
4.98265e-05
4.60125e-05
1.56027e-05
4.4231e-05
-1.82033e-05
4.38461e-05
-5.06837e-05
4.18893e-05
-8.20629e-05
4.06945e-05
-0.000112451
3.90786e-05
-0.000140565
3.65957e-05
-0.000167413
3.41512e-05
-0.000195151
3.65436e-05
-0.00021143
1.99428e-05
-0.000248406
4.87197e-05
-0.000241315
-9.64942e-06
-0.000292417
6.4367e-05
-0.000296728
1.02504e-05
-0.000286481
-2.07126e-05
-0.000345744
8.56562e-05
-0.000281244
-9.48155e-05
-0.000479565
0.000273387
-0.000196741
-0.00038315
-0.000620464
0.000552474
-0.000372357
-0.000302028
-0.000136233
-0.000344442
-0.00122124
0.00149016
0.000107416
-0.00180399
-0.00141628
0.00199224
-0.000687988
-0.000903913
-5.01877e-05
-0.000912946
-0.00308337
0.00417661
0.000478388
-0.00482262
-0.00222252
0.00344662
-0.00306067
0.00130947
0.00095168
-0.00540833
-0.00202072
0.00396484
0.000155937
-0.00283954
0.00185849
-0.00233058
0.00200011
0.0414478
0.0160273
-0.0411467
0.0391548
0.0155973
0.0352225
0.0131379
0.0309343
0.0103398
0.0270183
0.00793497
0.0237286
0.00607354
0.0210538
0.00470809
0.0188848
0.00372571
0.017107
0.00301437
0.0156277
0.00248969
0.0143779
0.00209392
0.0133072
0.00178852
0.0123789
0.00154788
0.0115653
0.00135474
0.0108457
0.00119722
0.010204
0.00106694
0.00962775
0.00095785
0.00910697
0.000865501
0.00863366
0.000786564
0.00820132
0.000718503
0.0078046
0.000659364
0.00743909
0.000607614
0.00710105
0.000562042
0.00678736
0.000521678
0.00649536
0.00048574
0.00622277
0.000453589
0.00596761
0.000424699
0.00572818
0.000398636
0.00550299
0.000375035
0.00529076
0.000353591
0.00509031
0.000334048
0.00490066
0.000316184
0.00472088
0.000299814
0.00455018
0.000284776
0.00438783
0.000270933
0.00423319
0.000258162
0.00408568
0.000246363
0.00394475
0.00023544
0.00380994
0.000225318
0.0036808
0.000215922
0.00355692
0.000207197
0.00343795
0.000199078
0.00332353
0.000191531
0.00321336
0.000184496
0.00310714
0.000177954
0.00300461
0.000171848
0.0029055
0.000166177
0.0028096
0.000160879
0.00271666
0.000155973
0.00262649
0.000151386
0.00253888
0.00014716
0.00245366
0.000143205
0.00237063
0.000139593
0.00228965
0.000136207
0.00221052
0.000133156
0.00213312
0.000130287
0.00205727
0.000127756
0.00198287
0.00012536
0.00190972
0.000123318
0.00183775
0.000121357
0.00176677
0.000119775
0.00169672
0.000118215
0.00162741
0.000117074
0.0015588
0.000115884
0.00149066
0.000115172
0.00142303
0.000114321
0.00135563
0.000114023
0.00128854
0.000113468
0.00122147
0.000113556
0.00115455
0.00011324
0.00108744
0.00011368
0.00102037
0.000113529
0.000952956
0.000114267
0.000885516
0.000114177
0.000817607
0.000115136
0.000749693
0.000114973
0.000681257
0.000116043
0.000612939
0.000115622
0.000544138
0.000116652
0.000475701
0.000115752
0.000406919
0.000116583
0.000338889
0.000114959
0.000270773
0.000115387
0.000203976
0.000112742
0.000137495
0.000112492
7.29709e-05
0.000108755
9.48189e-06
0.000107335
-5.20113e-05
0.000103383
-0.000111086
9.97701e-05
-0.000169006
9.69997e-05
-0.000221775
8.93661e-05
-0.000274018
8.63947e-05
-0.000324856
8.73807e-05
-0.000359164
5.42515e-05
-0.000425665
0.00011522
-0.000416621
-1.86934e-05
-0.000514393
0.000162141
-0.000513401
9.26432e-06
-0.00051279
-2.13248e-05
-0.000603326
0.000176195
-0.000511707
-0.000186432
-0.000830514
0.000592192
-0.000368728
-0.000844937
-0.00111678
0.00130054
-0.000632089
-0.000786738
-0.00031407
-0.000662459
-0.00203481
0.0032109
0.000152172
-0.00399099
-0.00257507
0.0047195
-0.00116415
-0.00231483
-0.000213497
-0.00186362
-0.00497761
0.0089407
0.000899984
-0.0107003
-0.00429768
0.00864431
-0.00506862
0.00208057
0.00164639
-0.0121234
-0.00348222
0.00909344
0.000531971
-0.00685374
0.00315553
-0.00495413
0.00474538
0.04591
0.0147296
-0.0446124
0.0459904
0.0155169
0.044409
0.0147194
0.0416828
0.013066
0.0384371
0.0111807
0.0351307
0.00937998
0.032031
0.00780775
0.0292525
0.00650424
0.0268139
0.00545298
0.0246891
0.00461451
0.0228369
0.00394612
0.0212153
0.00341005
0.0197872
0.00297596
0.0185214
0.00262061
0.0173921
0.00232648
0.0163786
0.00208045
0.0154638
0.00187261
0.0146339
0.00169543
0.0138774
0.00154313
0.0131846
0.00141122
0.0125478
0.00129617
0.0119603
0.00119519
0.0114163
0.00110604
0.0109111
0.00102691
0.0104405
0.000956329
0.010001
0.000893092
0.00958948
0.000836199
0.0092033
0.000784817
0.00884009
0.000738248
0.00849778
0.000695904
0.00817454
0.000657286
0.00786876
0.000621968
0.00757898
0.000589588
0.00730392
0.00055983
0.00704243
0.000532426
0.00679345
0.000507137
0.00655604
0.000483764
0.00632935
0.000462123
0.0061126
0.000442062
0.00590508
0.000423436
0.00570614
0.000406134
0.00551518
0.000390034
0.00533165
0.000375058
0.00515504
0.000361101
0.00498488
0.000348112
0.00482074
0.000335992
0.00466219
0.000324723
0.00450887
0.000314201
0.0043604
0.00030444
0.00421646
0.000295324
0.00407672
0.000286903
0.00394089
0.000279038
0.00380866
0.000271824
0.00367979
0.000265083
0.00355398
0.00025897
0.00343101
0.000253252
0.00331062
0.000248156
0.0031926
0.000243378
0.00307668
0.000239232
0.00296272
0.00023532
0.00285043
0.000232068
0.00273969
0.000228956
0.0026302
0.000226559
0.00252189
0.00022419
0.00241445
0.000222619
0.00230783
0.000220939
0.0022017
0.000220159
0.00209608
0.00021909
0.00199059
0.000219046
0.00188534
0.000218487
0.00177992
0.000219109
0.00167452
0.000218926
0.00156869
0.000220107
0.00146275
0.000220113
0.00135619
0.000221701
0.00124952
0.000221647
0.00114214
0.000223427
0.00103479
0.000222972
0.000926795
0.000224649
0.000819164
0.000223383
0.000711106
0.000224642
0.000603962
0.000222103
0.000496804
0.000222545
0.000391382
0.000218163
0.000286579
0.000217293
0.000184462
0.000210872
8.39285e-05
0.000207869
-1.35576e-05
0.00020087
-0.000107267
0.00019348
-0.000199594
0.000189328
-0.000283544
0.000173318
-0.000367725
0.000170576
-0.000447569
0.000167224
-0.000505807
0.00011249
-0.000607529
0.000216942
-0.00060085
-2.53596e-05
-0.000752718
0.00031401
-0.000746575
3.12446e-06
-0.000762797
-5.08644e-06
-0.000887502
0.000300901
-0.000772094
-0.000301838
-0.00121288
0.00103297
-0.000576869
-0.00148094
-0.00166983
0.00239349
-0.000920236
-0.00153632
-0.000563126
-0.00101954
-0.00287057
0.00551834
0.000175627
-0.00703717
-0.00388492
0.00878005
-0.00169244
-0.0045073
-0.000513147
-0.00304287
-0.00676821
0.0151957
0.00142624
-0.0188947
-0.00680622
0.0168768
-0.00707881
0.00235279
0.00238514
-0.0215873
-0.00501183
0.0164904
0.00118355
-0.0130491
0.00450152
-0.00827209
0.00888405
0.0493757
0.0135366
-0.0481827
0.0503376
0.014555
0.0503537
0.0147032
0.0493294
0.0140902
0.0474826
0.0130275
0.0451058
0.0117567
0.0424709
0.0104426
0.0397844
0.00919073
0.0371811
0.00805625
0.0347355
0.00706012
0.0324797
0.0062019
0.0304196
0.00547011
0.0285469
0.00484875
0.0268463
0.00432113
0.0253009
0.00387187
0.0238938
0.00348764
0.0226091
0.0031573
0.0214328
0.00287169
0.0203526
0.00262335
0.0193576
0.00240621
0.0184384
0.00221535
0.0175869
0.00204672
0.0167959
0.00189703
0.0160593
0.00176354
0.0153717
0.001644
0.0147282
0.00153653
0.0141249
0.00143956
0.0135579
0.00135176
0.0130242
0.00127201
0.0125207
0.00119935
0.012045
0.00113298
0.0115948
0.00107219
0.011168
0.00101638
0.0107628
0.000965038
0.0103775
0.000917705
0.0100107
0.000873987
0.00966087
0.000833545
0.00932692
0.000796072
0.00900766
0.000761311
0.00870208
0.000729018
0.00840921
0.000698999
0.00812818
0.000671053
0.0078582
0.00064504
0.00759851
0.000620787
0.00734842
0.000598201
0.00710729
0.000577121
0.00687451
0.000557501
0.00664953
0.000539181
0.00643181
0.000522164
0.00622086
0.000506274
0.0060162
0.000491569
0.00581739
0.000477843
0.005624
0.000465217
0.00543565
0.000453438
0.00525191
0.000442706
0.00507247
0.0004327
0.00489691
0.000423717
0.00472495
0.000415339
0.0045562
0.000407986
0.0043904
0.000401111
0.00422718
0.00039529
0.00406633
0.00038981
0.00390744
0.000385449
0.00375036
0.000381272
0.00359466
0.000378318
0.00344025
0.000375352
0.00328666
0.000373743
0.00313389
0.000371866
0.00298143
0.000371506
0.00282936
0.000370556
0.00267715
0.000371327
0.00252499
0.00037109
0.00237229
0.000372809
0.00221942
0.000372982
0.00206574
0.000375392
0.00191181
0.000375571
0.00175694
0.000378302
0.00160199
0.000377928
0.00144616
0.000380482
0.00129066
0.000378883
0.00113458
0.000380721
0.00097956
0.000377121
0.000824542
0.000377562
0.000671699
0.000371005
0.000519746
0.000369245
0.000371284
0.000359334
0.000225026
0.000354127
8.29119e-05
0.000342984
-5.38687e-05
0.000330261
-0.000189017
0.000324477
-0.00031217
0.000296472
-0.000436265
0.000294671
-0.000552436
0.000283396
-0.000641901
0.000201956
-0.000785687
0.000360729
-0.000787289
-2.37769e-05
-0.00100143
0.000528155
-0.0009917
-6.60582e-06
-0.00103325
3.64485e-05
-0.00119578
0.000463437
-0.00106025
-0.000437363
-0.00162511
0.00159783
-0.000821584
-0.00228446
-0.00227574
0.00384765
-0.00124166
-0.00257038
-0.000888575
-0.0013726
-0.00372342
0.00835319
0.00017328
-0.0109339
-0.00532879
0.0142821
-0.00228414
-0.00755196
-0.000979029
-0.00434796
-0.00842695
0.0226436
0.0020736
-0.0293953
-0.00969453
0.028645
-0.00907972
0.00173903
0.00310003
-0.0337671
-0.00655103
0.0261415
0.00216521
-0.0217654
0.00587744
-0.0119843
0.0145619
0.0528334
0.0126393
-0.0519362
0.0538605
0.0135279
0.0545428
0.0140209
0.05461
0.014023
0.0540096
0.013628
0.0528107
0.0129556
0.0511429
0.0121105
0.0491525
0.0111811
0.0469743
0.0102344
0.0447189
0.00931548
0.0424686
0.00845219
0.0402795
0.00765926
0.038186
0.00694219
0.0362068
0.00630038
0.034349
0.00572959
0.032613
0.00522366
0.0309946
0.00477573
0.0294873
0.00437899
0.0280836
0.00402707
0.0267756
0.0037142
0.0255556
0.00343532
0.0244163
0.00318602
0.0233509
0.00296248
0.022353
0.00276144
0.0214169
0.00258007
0.0205375
0.00241599
0.0197099
0.00226711
0.01893
0.00213166
0.0181939
0.00200812
0.0174981
0.00189515
0.0168395
0.00179162
0.0162152
0.00169652
0.0156226
0.00160899
0.0150593
0.00152828
0.0145233
0.00145372
0.0140125
0.00138473
0.0135253
0.00132081
0.0130599
0.00126149
0.0126148
0.00120639
0.0121887
0.00115513
0.0117802
0.00110743
0.0113883
0.00106298
0.0110118
0.00102156
0.0106496
0.000982907
0.010301
0.000946874
0.00996486
0.000913221
0.0096405
0.000881863
0.00932711
0.000852569
0.00902395
0.000825319
0.00873036
0.00079987
0.00844566
0.000776275
0.00816925
0.000754253
0.00790052
0.000733947
0.00763895
0.000715014
0.00738395
0.000697704
0.00713507
0.000681587
0.00689174
0.00066704
0.00665357
0.000653513
0.00642001
0.000641542
0.00619071
0.000630411
0.00596514
0.00062086
0.00574299
0.000611958
0.00552373
0.000604711
0.0053071
0.000597899
0.00509255
0.00059287
0.0048799
0.000588008
0.00466854
0.000585098
0.00445841
0.000582006
0.00424885
0.000581066
0.0040399
0.000579505
0.00383088
0.000580351
0.00362197
0.000580004
0.00341242
0.000582357
0.00320264
0.000582771
0.0029918
0.000586228
0.00278059
0.000586793
0.00256811
0.000590784
0.00235538
0.000590652
0.00214146
0.000594404
0.00192779
0.000592554
0.0017133
0.000595218
0.00149997
0.00059045
0.00128657
0.000590958
0.00107578
0.000581795
0.000866097
0.000578928
0.000660762
0.000564669
0.000458262
0.000556626
0.000261113
0.000540134
7.08642e-05
0.000520511
-0.000117165
0.000512506
-0.000289256
0.000468563
-0.000463029
0.000468445
-0.000624516
0.000444883
-0.000754266
0.000331706
-0.000948442
0.000554905
-0.000966031
-6.1693e-06
-0.0012515
0.000813623
-0.00124147
-1.66443e-05
-0.00131857
0.000113559
-0.00152304
0.00066791
-0.00137226
-0.000588146
-0.00206374
0.00228931
-0.00110118
-0.00324702
-0.00292809
0.00567456
-0.00159908
-0.00389938
-0.00129374
-0.00167791
-0.00458884
0.0116483
0.000140183
-0.0156629
-0.0068795
0.0213018
-0.00294651
-0.011485
-0.00164464
-0.00564978
-0.00994498
0.0309439
0.00285446
-0.0421947
-0.0128609
0.0443604
-0.0110717
-5.34184e-05
0.00367677
-0.0485155
-0.00804143
0.0378597
0.00352035
-0.0333272
0.00726245
-0.0157264
0.0218929
0.0565528
0.011953
-0.0558664
0.0574054
0.0126753
0.0582009
0.0132254
0.0587264
0.0134974
0.0588597
0.0134947
0.058555
0.0132603
0.0578216
0.0128438
0.0567075
0.0122953
0.0552811
0.0116608
0.0536178
0.0109787
0.0517913
0.0102788
0.0498667
0.0095838
0.0478988
0.00891006
0.0459306
0.00826856
0.0439942
0.00766604
0.0421119
0.00710591
0.0402986
0.00658912
0.0385627
0.00611487
0.0369085
0.00568123
0.0353371
0.0052856
0.0338474
0.00492505
0.0324369
0.00459656
0.0311022
0.00429716
0.0298396
0.00402407
0.028645
0.0037747
0.0275143
0.00354667
0.0264435
0.00333786
0.0254289
0.00314634
0.0244666
0.0029704
0.0235533
0.0028085
0.0226856
0.00265929
0.0218605
0.00252156
0.0210753
0.00239424
0.0203272
0.00227637
0.0196138
0.0021671
0.0189329
0.00206567
0.0182823
0.00197141
0.01766
0.00188372
0.0170643
0.00180207
0.0164935
0.00172596
0.0159459
0.00165499
0.0154202
0.00158873
0.0149148
0.00152688
0.0144287
0.00146908
0.0139604
0.00141511
0.013509
0.00136464
0.0130733
0.00131755
0.0126524
0.0012735
0.0122452
0.00123247
0.011851
0.00119412
0.0114688
0.00115849
0.0110978
0.00112523
0.0107373
0.00109448
0.0103865
0.00106581
0.0100447
0.00103952
0.00971121
0.00101505
0.00938538
0.000992872
0.00906662
0.000972274
0.00875423
0.000953931
0.00844772
0.000936923
0.00814639
0.000922188
0.00784982
0.000908533
0.0075573
0.000897233
0.00726847
0.000886729
0.0069826
0.000878737
0.00669942
0.00087119
0.00641816
0.000866359
0.00613865
0.000861513
0.00586009
0.000859632
0.00558244
0.000857156
0.00530483
0.00085796
0.00502743
0.000857407
0.0047493
0.000860492
0.00447085
0.000861222
0.00419108
0.000866007
0.00391073
0.000867148
0.00362872
0.000872797
0.00334624
0.000873133
0.00306212
0.000878523
0.0027781
0.000876581
0.00249286
0.000880455
0.00220883
0.00087448
0.00192453
0.000875257
0.00164324
0.000863087
0.00136317
0.000858999
0.00108833
0.0008395
0.000816921
0.000828039
0.000552201
0.000804855
0.000295775
0.000776938
4.26538e-05
0.000765629
-0.000190013
0.000701231
-0.000425541
0.000703973
-0.000643325
0.000662666
-0.000824592
0.000512973
-0.00107918
0.000809492
-0.0011228
3.74457e-05
-0.00148987
0.00118069
-0.00148481
-2.16556e-05
-0.00160993
0.000238675
-0.00186088
0.000918865
-0.00170162
-0.000747407
-0.00252287
0.00311055
-0.00141111
-0.00435877
-0.0036179
0.00788134
-0.00199262
-0.00552464
-0.00177821
-0.00189228
-0.00546496
0.015335
6.9359e-05
-0.0211972
-0.00850298
0.0298742
-0.00368237
-0.0163056
-0.00253933
-0.00679278
-0.0113449
0.0397494
0.00376913
-0.0573088
-0.0161551
0.0642847
-0.0130651
-0.00314047
0.00396335
-0.0655439
-0.00944393
0.0512669
0.00526552
-0.0480367
0.00863907
-0.0190999
0.030969
0.0605572
0.0113903
-0.0599946
0.0612409
0.0119916
0.0619547
0.0125116
0.0625759
0.0128763
0.0630068
0.0130637
0.0631835
0.0130836
0.0630704
0.012957
0.0626569
0.0127087
0.0619534
0.0123644
0.0609844
0.0119477
0.0597845
0.0114787
0.0583933
0.010975
0.056852
0.0104513
0.0552009
0.00991968
0.0534768
0.00939013
0.0517122
0.00887054
0.0499343
0.00836697
0.0481654
0.00788383
0.0464225
0.00742409
0.0447186
0.0069895
0.0430629
0.00658084
0.0414613
0.0061981
0.0399178
0.00584071
0.0384341
0.00550772
0.0370109
0.00519792
0.0356477
0.00490995
0.0343431
0.00464241
0.0330956
0.00439388
0.031903
0.00416297
0.0307631
0.00394837
0.0296736
0.00374882
0.028632
0.00356315
0.027636
0.0033903
0.0266831
0.00322925
0.0257711
0.00307911
0.0248977
0.00293902
0.0240609
0.00280824
0.0232585
0.00268606
0.0224887
0.00257186
0.0217496
0.00246504
0.0210395
0.00236511
0.0203567
0.00227155
0.0196996
0.00218398
0.0190667
0.00210194
0.0184567
0.00202516
0.0178681
0.00195322
0.0172997
0.00188594
0.0167503
0.00182291
0.0162187
0.00176407
0.0157038
0.00170899
0.0152046
0.00165773
0.01472
0.0016098
0.0142491
0.0015654
0.0137909
0.00152396
0.0133446
0.00148586
0.0129093
0.00145037
0.0124841
0.00141809
0.0120682
0.00138812
0.0116608
0.00136129
0.0112613
0.00133645
0.0108687
0.00131476
0.0104825
0.00129473
0.0101018
0.00127794
0.00972612
0.00126245
0.00935447
0.00125039
0.00898649
0.00123917
0.00862122
0.00123164
0.00825838
0.00122435
0.00789694
0.00122107
0.00753682
0.00121728
0.00717691
0.00121788
0.00681733
0.00121699
0.00645691
0.00122092
0.00609608
0.00122205
0.00573357
0.00122852
0.00537024
0.00123048
0.00500473
0.00123831
0.00463843
0.00123944
0.00426988
0.00124707
0.00390115
0.00124531
0.00353064
0.00125097
0.00316126
0.00124386
0.00279121
0.0012453
0.00242449
0.0012298
0.00205894
0.00122455
0.00169951
0.00119892
0.00134398
0.00118357
0.000996607
0.00115223
0.000658987
0.00111456
0.000326445
0.00109817
1.91973e-05
0.00100848
-0.000293949
0.00101712
-0.000581252
0.000949968
-0.000827999
0.000759721
-0.00115528
0.00113677
-0.00123748
0.00011967
-0.00169808
0.0016413
-0.00170587
-1.39483e-05
-0.00189397
0.000426786
-0.00219651
0.0012214
-0.00203829
-0.000905622
-0.00299327
0.00406553
-0.00174326
-0.00560876
-0.00433289
0.010471
-0.00241844
-0.00743907
-0.00233647
-0.00197418
-0.00635218
0.0193507
-3.59756e-05
-0.0275134
-0.0101614
0.0399996
-0.00448843
-0.0219785
-0.0036803
-0.00760087
-0.0126794
0.0487484
0.00479785
-0.0747861
-0.0193875
0.0884701
-0.0150564
-0.00747242
0.00379924
-0.0843996
-0.0107509
0.0658171
0.00737723
-0.0661648
0.00999736
-0.02172
0.0417933
0.0648405
0.0109062
-0.0643564
0.0654053
0.0114268
0.0660123
0.0119046
0.0665964
0.0122922
0.0670948
0.0125653
0.0674592
0.0127192
0.0676541
0.0127621
0.0676554
0.0127073
0.0674501
0.0125697
0.0670339
0.0123639
0.0664104
0.0121021
0.0655903
0.0117951
0.0645893
0.0114523
0.0634273
0.0110816
0.0621271
0.0106904
0.0607127
0.0102849
0.0592085
0.00987118
0.0576379
0.00945439
0.0560228
0.00903926
0.0543824
0.00862983
0.0527338
0.00822947
0.0510911
0.00784087
0.0494657
0.00746606
0.047867
0.00710648
0.0463019
0.00676304
0.0447756
0.00643621
0.0432919
0.00612613
0.0418532
0.00583261
0.0404608
0.0055553
0.0391155
0.00529368
0.0378172
0.00504713
0.0365654
0.00481495
0.0353593
0.00459646
0.0341976
0.0043909
0.0330791
0.00419758
0.0320024
0.00401579
0.0309657
0.00384486
0.0299677
0.00368413
0.0290065
0.00353301
0.0280806
0.00339091
0.0271884
0.00325733
0.0263282
0.00313171
0.0254985
0.00301365
0.0246978
0.00290264
0.0239246
0.00279837
0.0231775
0.00270037
0.022455
0.00260844
0.0217558
0.00252209
0.0210786
0.00244125
0.0204222
0.00236541
0.0197853
0.00229463
0.0191668
0.00222833
0.0185654
0.00216675
0.0179802
0.00210919
0.01741
0.0020561
0.0168538
0.00200661
0.0163104
0.00196143
0.0157791
0.00191945
0.0152587
0.0018817
0.0147484
0.00184676
0.0142471
0.00181605
0.0137541
0.00178773
0.0132683
0.00176378
0.012789
0.00174175
0.012315
0.00172432
0.0118459
0.00170824
0.0113805
0.00169708
0.0109183
0.00168654
0.0104581
0.00168129
0.00999967
0.00167571
0.00954163
0.00167592
0.0090841
0.00167453
0.00862556
0.00167946
0.00816649
0.00168112
0.00770528
0.00168973
0.00724291
0.00169286
0.00677766
0.00170357
0.00631116
0.00170594
0.00584158
0.00171666
0.00537137
0.00171552
0.00489853
0.00172382
0.00442658
0.00171581
0.00395328
0.0017186
0.00348348
0.0016996
0.00301453
0.00169351
0.00255253
0.00166092
0.00209469
0.00164141
0.00164657
0.00160035
0.00120955
0.00155158
0.000779482
0.00152824
0.000376914
0.00141105
-3.00357e-05
0.00142407
-0.000401271
0.0013212
-0.000731066
0.00108952
-0.00114587
0.00155158
-0.00128239
0.000256183
-0.00185074
0.00220965
-0.00188216
1.75451e-05
-0.00215131
0.000695939
-0.00251139
0.00158148
-0.00236748
-0.00104953
-0.00346106
0.0051591
-0.00208485
-0.00698497
-0.00505711
0.0134432
-0.00286737
-0.00962878
-0.00295613
-0.00188549
-0.0072516
0.0236462
-0.000158067
-0.0346069
-0.0118182
0.0516597
-0.00535414
-0.0284426
-0.00506204
-0.00789281
-0.014021
0.0577072
0.00590023
-0.0947072
-0.0223471
0.116718
-0.0170042
-0.0128151
0.00306511
-0.104469
-0.011985
0.0808672
0.00978496
-0.0879348
0.0113385
-0.0232735
0.0543057
0.0694115
0.0104791
-0.0689844
0.0698946
0.0109437
0.0704145
0.0113847
0.0709357
0.0117711
0.0714185
0.0120825
0.0718291
0.0123086
0.0721415
0.0124497
0.0723363
0.0125125
0.0723993
0.0125067
0.0723206
0.0124426
0.0720932
0.0123296
0.0717133
0.0121751
0.0711802
0.0119854
0.0704962
0.0117656
0.0696669
0.0115197
0.0687007
0.0112512
0.0676087
0.0109631
0.0664044
0.0106587
0.0651028
0.0103409
0.0637196
0.010013
0.0622709
0.00967815
0.0607724
0.00933941
0.0592387
0.00899973
0.0576834
0.00866179
0.0561185
0.00832798
0.0545544
0.00800034
0.0529999
0.00768054
0.0514626
0.00736993
0.0499484
0.00706952
0.0484621
0.00678001
0.0470073
0.00650189
0.0455869
0.0062354
0.0442027
0.00598064
0.0428561
0.00573754
0.0415477
0.00550596
0.0402778
0.00528563
0.0390464
0.00507628
0.037853
0.00487752
0.036697
0.00468902
0.0355775
0.00451035
0.0344937
0.00434117
0.0334444
0.00418102
0.0324284
0.00402959
0.0314446
0.00388642
0.0304917
0.00375127
0.0295685
0.00362363
0.0286735
0.00350337
0.0278057
0.00338997
0.0269635
0.00328339
0.0261459
0.00318307
0.0253514
0.00308912
0.0245789
0.00300086
0.023827
0.00291861
0.0230946
0.00284155
0.0223805
0.00277023
0.0216835
0.00270362
0.0210023
0.0026426
0.020336
0.00258581
0.0196831
0.00253454
0.0190429
0.00248703
0.0184138
0.00244506
0.0177952
0.00240637
0.0171856
0.00237338
0.0165843
0.0023431
0.0159897
0.00231884
0.0154014
0.00229659
0.0148177
0.00228076
0.0142382
0.00226603
0.0136613
0.00225822
0.0130867
0.00225032
0.0125127
0.00224996
0.0119393
0.00224793
0.0113646
0.00225412
0.0107892
0.00225652
0.0102111
0.00226789
0.00963124
0.00227267
0.0090476
0.00228722
0.00846205
0.00229149
0.00787224
0.00230647
0.00728112
0.00230664
0.00668613
0.0023188
0.00609152
0.00231042
0.00549447
0.00231566
0.00490085
0.00229321
0.00430735
0.00228701
0.00372147
0.00224681
0.00313968
0.00222321
0.00256918
0.00217084
0.0020109
0.00210986
0.00146175
0.00207739
0.000943256
0.00192954
0.000424543
0.00194278
-5.26675e-05
0.00179841
-0.000489456
0.00152631
-0.00100963
0.00207175
-0.00121984
0.000466401
-0.00191332
0.00290313
-0.00198271
8.68813e-05
-0.00235456
0.0010678
-0.0027794
0.00200632
-0.002668
-0.00116092
-0.00390601
0.0063971
-0.00241708
-0.00847388
-0.0057699
0.016796
-0.00332314
-0.0120755
-0.00361637
-0.00159218
-0.00816173
0.0281915
-0.000325582
-0.0424431
-0.013442
0.0647762
-0.00626074
-0.0356239
-0.006648
-0.00750554
-0.0154414
0.0665005
0.0070237
-0.117172
-0.0248312
0.148573
-0.0188052
-0.0188412
0.00173905
-0.125013
-0.0131728
0.095779
0.0123817
-0.113489
0.0126768
-0.0235686
0.0683654
0.0742898
0.0100964
-0.0739071
0.0747137
0.0105198
0.0751678
0.0109306
0.0756313
0.0113075
0.0760786
0.0116352
0.0764849
0.0119023
0.0768305
0.0121041
0.0771008
0.0122422
0.0772854
0.0123221
0.077377
0.012351
0.0773696
0.0123369
0.0772583
0.0122864
0.0770385
0.0122051
0.0767065
0.0120976
0.0762591
0.0119671
0.0756943
0.0118159
0.075012
0.0116455
0.0742138
0.0114569
0.0733036
0.0112511
0.0722876
0.0110291
0.0711735
0.0107922
0.069971
0.0105419
0.0686907
0.0102801
0.0673439
0.0100086
0.0659423
0.00972962
0.0644973
0.00944535
0.0630199
0.00915791
0.0615205
0.00886937
0.0600084
0.00858162
0.058492
0.00829637
0.0569788
0.00801511
0.0554751
0.0077391
0.0539863
0.00746942
0.0525169
0.0072069
0.0510707
0.00695222
0.0496504
0.00670587
0.0482585
0.00646821
0.0468966
0.00623946
0.0455658
0.00601976
0.044267
0.00580913
0.0430006
0.00560757
0.0417667
0.00541495
0.040565
0.00523121
0.0393954
0.00505609
0.0382571
0.00488954
0.0371495
0.0047312
0.0360718
0.00458107
0.0350231
0.00443868
0.0340023
0.00430415
0.0330085
0.00417689
0.0320405
0.00405715
0.0310972
0.00394419
0.0301773
0.00383849
0.0292797
0.0037391
0.0284032
0.00364676
0.0275466
0.00356025
0.0267085
0.00348069
0.0258878
0.00340647
0.0250832
0.00333919
0.0242935
0.00327673
0.0235172
0.00322131
0.0227535
0.00317015
0.0220006
0.00312627
0.0212576
0.00308602
0.020523
0.00305346
0.0197959
0.0030237
0.0190745
0.00300219
0.0183582
0.00298235
0.017645
0.00297142
0.0169346
0.00296073
0.0162248
0.00295974
0.0155157
0.00295703
0.0148049
0.0029649
0.014093
0.00296841
0.0133774
0.00298347
0.0126595
0.00299063
0.0119364
0.00301033
0.0112104
0.00301749
0.0104785
0.00303835
0.00974424
0.0030409
0.00900434
0.00305871
0.0082639
0.00305086
0.00751933
0.00306023
0.00677774
0.0030348
0.00603494
0.00302981
0.00530012
0.00298162
0.00456878
0.00295454
0.00385023
0.0028894
0.00314455
0.00281554
0.00245048
0.00277147
0.00178998
0.00259004
0.00113281
0.00259995
0.000519184
0.00241204
-4.65965e-05
0.00209209
-0.000691467
0.00271662
-0.000999038
0.000773975
-0.00183959
0.00374368
-0.00196482
0.000212159
-0.00246578
0.00156876
-0.00296438
0.00250493
-0.00291009
-0.0012152
-0.00429916
0.00778616
-0.00271331
-0.0100597
-0.00644437
0.0205271
-0.0037605
-0.0147594
-0.00428668
-0.00106478
-0.00907377
0.0329786
-0.000533358
-0.0509835