/*--------------------------------*- C++ -*----------------------------------*\
| =========                 |                                                 |
| \\      /  F ield         | OpenFOAM: The Open Source CFD Toolbox           |
|  \\    /   O peration     | Version:  2412                                  |
|   \\  /    A nd           | Website:  www.openfoam.com                      |
|    \\/     M anipulation  |                                                 |
\*---------------------------------------------------------------------------*/
FoamFile
{
    version     2.0;
    format      ascii;
    arch        "LSB;label=32;scalar=64";
    class       surfaceScalarField;
    location    "1.675";
    object      phi_0;
}
// * * * * * * * * * * * * * * * * * * * * * * * * * * * * * * * * * * * * * //

dimensions      [0 3 -1 0 0 0 0];

oriented        oriented;

internalField   nonuniform List<scalar> 
24930
(
0.0179667
0.0127575
-0.0307365
0.0106016
0.00736513
0.00695028
0.00365131
0.00517384
0.00177643
0.00420157
0.000972268
0.00357853
0.000623036
0.00313252
0.000446011
0.00279295
0.000339562
0.00252373
0.000269217
0.00230378
0.000219941
0.00211996
0.000183824
0.00196351
0.00015644
0.0018284
0.000135109
0.00171027
0.000118124
0.00160592
0.000104352
0.00151291
9.30084e-05
0.00142937
8.35383e-05
0.00135383
7.55388e-05
0.00128512
6.87114e-05
0.0012223
6.28309e-05
0.00116457
5.77245e-05
0.00111132
5.32577e-05
0.001062
4.93247e-05
0.00101616
4.58411e-05
0.000973429
4.27387e-05
0.000933471
3.99624e-05
0.000896007
3.74667e-05
0.000860795
3.52142e-05
0.000827624
3.31735e-05
0.000796306
3.13184e-05
0.00076668
2.96268e-05
0.0007386
2.80798e-05
0.000711937
2.66616e-05
0.000686578
2.5358e-05
0.000662418
2.41577e-05
0.000639366
2.30498e-05
0.000617337
2.2026e-05
0.000596257
2.10777e-05
0.000576055
2.01992e-05
0.00055667
1.9383e-05
0.000538042
1.86256e-05
0.00052012
1.79202e-05
0.000502853
1.72653e-05
0.000486198
1.66539e-05
0.00047011
1.60869e-05
0.000454554
1.55561e-05
0.000439488
1.50655e-05
0.000424884
1.46048e-05
0.000410703
1.41817e-05
0.000396921
1.37827e-05
0.000383502
1.34202e-05
0.000370427
1.3076e-05
0.00035766
1.27685e-05
0.000345187
1.24734e-05
0.000332971
1.22169e-05
0.000321006
1.1966e-05
0.000309249
1.17574e-05
0.000297702
1.15466e-05
0.000286318
1.13838e-05
0.000275109
1.12093e-05
0.000264018
1.10905e-05
0.000253069
1.09484e-05
0.000242196
1.08727e-05
0.000231437
1.07594e-05
0.000220711
1.07267e-05
0.000210073
1.06382e-05
0.000199425
1.06483e-05
0.000188847
1.05793e-05
0.000178218
1.06307e-05
0.000167645
1.0574e-05
0.000156981
1.06647e-05
0.000146372
1.06112e-05
0.000135635
1.07378e-05
0.000124962
1.06752e-05
0.000114131
1.08322e-05
0.000103387
1.07451e-05
9.24631e-05
1.09245e-05
8.16711e-05
1.07924e-05
7.0689e-05
1.09821e-05
5.99077e-05
1.07808e-05
4.89384e-05
1.09685e-05
3.82647e-05
1.06726e-05
2.74221e-05
1.08415e-05
1.69992e-05
1.0422e-05
6.46087e-06
1.05377e-05
-3.54636e-06
1.00073e-05
-1.3586e-05
1.00402e-05
-2.29935e-05
9.40868e-06
-3.23075e-05
9.31532e-06
-4.09962e-05
8.68988e-06
-4.94779e-05
8.48227e-06
-5.67815e-05
7.30315e-06
-6.55864e-05
8.80426e-06
-6.92509e-05
3.66421e-06
-8.09914e-05
1.17434e-05
-7.84304e-05
-2.55871e-06
-9.16988e-05
1.32749e-05
-9.76211e-05
5.92939e-06
-8.7161e-05
-1.04562e-05
-0.000113543
2.63903e-05
-8.32541e-05
-3.02843e-05
-0.00015824
7.50026e-05
-5.79969e-05
-0.000100264
-0.000186757
0.000128754
-0.000132595
-5.41805e-05
-2.45385e-05
-0.000108088
-0.000429288
0.000404814
4.59531e-05
-0.000475284
-0.000422935
0.000468899
-0.000246802
-0.000176113
2.7478e-05
-0.000274386
-0.00111476
0.00114232
0.000146055
-0.00126092
-0.000601157
0.000747161
-0.00107161
0.000470606
0.000324386
-0.00139606
-0.000668412
0.000992784
-5.07067e-06
-0.000663261
0.000622667
-0.000627807
0.000476727
0.0336779
0.0163284
-0.0372489
0.0277388
0.0133042
0.0221845
0.00920562
0.0179093
0.00605161
0.0148626
0.00401897
0.0127018
0.00278387
0.0111144
0.00203331
0.00989723
0.00155677
0.00892989
0.00123655
0.00813945
0.00101037
0.00747916
0.00084411
0.0069177
0.00071789
0.0064333
0.00061951
0.00601026
0.000541155
0.005637
0.000477612
0.00530473
0.000425279
0.00500667
0.000381598
0.0047375
0.000344713
0.00449297
0.000313246
0.00426965
0.000286156
0.00406474
0.000262643
0.00387592
0.000242087
0.00370125
0.000223998
0.00353912
0.000207984
0.00338813
0.000193732
0.00324712
0.000180985
0.00311505
0.000169533
0.00299107
0.000159203
0.0028744
0.00014985
0.00276437
0.000141352
0.00266039
0.000133606
0.00256194
0.000126527
0.00246856
0.000120039
0.00237984
0.000114078
0.0022954
0.000108592
0.00221491
0.000103529
0.00213808
9.88522e-05
0.00206463
9.45221e-05
0.00199432
9.051e-05
0.00192691
8.67848e-05
0.0018622
8.33266e-05
0.00180001
8.01081e-05
0.00174016
7.71173e-05
0.00168248
7.43284e-05
0.00162683
7.17375e-05
0.00157307
6.93173e-05
0.00152106
6.70731e-05
0.00147069
6.49734e-05
0.00142184
6.30341e-05
0.00137441
6.12164e-05
0.00132828
5.95495e-05
0.00128337
5.79827e-05
0.00123958
5.65622e-05
0.00119684
5.52207e-05
0.00115503
5.40263e-05
0.00111411
5.28892e-05
0.00107396
5.19054e-05
0.00103455
5.0955e-05
0.000995769
5.01698e-05
0.000957588
4.93901e-05
0.000919885
4.87936e-05
0.000882663
4.81696e-05
0.00084578
4.77553e-05
0.000809265
4.72735e-05
0.000772954
4.70379e-05
0.000736908
4.66843e-05
0.000700934
4.66229e-05
0.000665136
4.6378e-05
0.000629288
4.64809e-05
0.000593545
4.63186e-05
0.000557638
4.65731e-05
0.000521792
4.64598e-05
0.000485686
4.68461e-05
0.000449628
4.67355e-05
0.000413239
4.7224e-05
0.00037693
4.7057e-05
0.000340251
4.76056e-05
0.000303744
4.73017e-05
0.000266878
4.78507e-05
0.000230345
4.73147e-05
0.000193513
4.78015e-05
0.000157256
4.69306e-05
0.000120825
4.72722e-05
8.53013e-05
4.59451e-05
4.9826e-05
4.60122e-05
1.56021e-05
4.42302e-05
-1.82045e-05
4.38459e-05
-5.06849e-05
4.18884e-05
-8.20647e-05
4.0695e-05
-0.000112453
3.90784e-05
-0.000140566
3.65957e-05
-0.000167416
3.41542e-05
-0.000195151
3.65395e-05
-0.000211435
1.99489e-05
-0.000248402
4.87089e-05
-0.000241323
-9.63615e-06
-0.000292438
6.43904e-05
-0.000296711
1.02029e-05
-0.000286484
-2.06795e-05
-0.000345739
8.56489e-05
-0.00028132
-9.47008e-05
-0.000479417
0.000273101
-0.000196839
-0.000382826
-0.000620518
0.000552436
-0.000371968
-0.000302694
-0.000136749
-0.00034328
-0.00122066
0.00148874
0.000107708
-0.00180363
-0.00141674
0.00199331
-0.000687286
-0.00090557
-5.09712e-05
-0.000910634
-0.00308175
0.00417306
0.000479848
-0.00482246
-0.00222508
0.00345207
-0.00306066
0.00130603
0.000951567
-0.00540825
-0.00202164
0.00396599
0.000156444
-0.00284138
0.00185793
-0.00232927
0.00200092
0.0414479
0.0160273
-0.0411467
0.0391548
0.0155973
0.0352225
0.0131379
0.0309343
0.0103398
0.0270183
0.00793497
0.0237286
0.00607354
0.0210538
0.0047081
0.0188848
0.00372572
0.017107
0.00301437
0.0156277
0.0024897
0.0143779
0.00209392
0.0133072
0.00178852
0.0123789
0.00154788
0.0115653
0.00135474
0.0108457
0.00119722
0.010204
0.00106694
0.00962775
0.000957849
0.00910696
0.0008655
0.00863365
0.000786562
0.00820131
0.000718502
0.0078046
0.000659363
0.00743908
0.000607613
0.00710104
0.000562041
0.00678736
0.000521678
0.00649536
0.00048574
0.00622276
0.000453589
0.0059676
0.0004247
0.00572817
0.000398636
0.00550299
0.000375036
0.00529075
0.000353592
0.00509031
0.000334048
0.00490065
0.000316184
0.00472088
0.000299815
0.00455018
0.000284777
0.00438783
0.000270933
0.00423319
0.000258163
0.00408567
0.000246363
0.00394475
0.00023544
0.00380994
0.000225319
0.00368079
0.000215922
0.00355692
0.000207197
0.00343794
0.000199079
0.00332352
0.000191531
0.00321335
0.000184496
0.00310714
0.000177954
0.0030046
0.000171849
0.0029055
0.000166178
0.00280959
0.00016088
0.00271665
0.000155973
0.00262649
0.000151386
0.00253888
0.00014716
0.00245366
0.000143205
0.00237063
0.000139594
0.00228964
0.000136207
0.00221052
0.000133157
0.00213312
0.000130287
0.00205727
0.000127757
0.00198287
0.000125361
0.00190972
0.000123318
0.00183775
0.000121357
0.00176677
0.000119775
0.00169672
0.000118215
0.0016274
0.000117074
0.00155879
0.000115883
0.00149066
0.000115172
0.00142302
0.000114321
0.00135562
0.000114023
0.00128854
0.000113468
0.00122146
0.000113556
0.00115454
0.00011324
0.00108744
0.00011368
0.00102037
0.000113529
0.000952953
0.000114267
0.000885514
0.000114178
0.000817605
0.000115136
0.000749691
0.000114973
0.000681255
0.000116044
0.000612937
0.000115622
0.000544136
0.000116653
0.0004757
0.000115752
0.000406918
0.000116584
0.000338888
0.000114959
0.000270772
0.000115388
0.000203975
0.000112741
0.000137494
0.000112491
7.297e-05
0.000108753
9.48021e-06
0.000107335
-5.20129e-05
0.000103382
-0.000111089
9.97713e-05
-0.000169008
9.69991e-05
-0.000221778
8.93663e-05
-0.000274024
8.64012e-05
-0.000324855
8.73712e-05
-0.000359174
5.42676e-05
-0.000425657
0.000115192
-0.000416636
-1.86559e-05
-0.000514424
0.000162181
-0.000513371
9.15552e-06
-0.000512795
-2.12543e-05
-0.000603322
0.000176182
-0.000511831
-0.000186185
-0.00083026
0.000591534
-0.000368912
-0.000844171
-0.00111683
0.00130036
-0.00063148
-0.000788051
-0.000315009
-0.000659767
-0.00203379
0.00320753
0.00015264
-0.00399008
-0.00257567
0.00472164
-0.00116303
-0.0023182
-0.000215196
-0.00185849
-0.00497486
0.00893269
0.000902337
-0.0106997
-0.00430184
0.00865628
-0.00506854
0.00207288
0.00164585
-0.0121227
-0.00348374
0.00909558
0.000532954
-0.00685807
0.00315447
-0.00495078
0.00474727
0.04591
0.0147296
-0.0446124
0.0459905
0.0155169
0.044409
0.0147194
0.0416829
0.013066
0.0384372
0.0111807
0.0351307
0.00937999
0.032031
0.00780776
0.0292525
0.00650424
0.0268139
0.00545298
0.0246891
0.00461451
0.0228369
0.00394612
0.0212153
0.00341005
0.0197872
0.00297596
0.0185214
0.00262061
0.0173921
0.00232648
0.0163786
0.00208045
0.0154638
0.00187261
0.0146339
0.00169543
0.0138773
0.00154313
0.0131846
0.00141122
0.0125478
0.00129617
0.0119603
0.00119519
0.0114163
0.00110604
0.010911
0.00102691
0.0104405
0.000956329
0.010001
0.000893093
0.00958947
0.0008362
0.0092033
0.000784818
0.00884009
0.000738249
0.00849778
0.000695905
0.00817454
0.000657286
0.00786875
0.000621969
0.00757898
0.000589588
0.00730392
0.00055983
0.00704242
0.000532426
0.00679344
0.000507138
0.00655604
0.000483765
0.00632935
0.000462123
0.0061126
0.000442062
0.00590508
0.000423437
0.00570614
0.000406135
0.00551518
0.000390035
0.00533165
0.000375059
0.00515504
0.000361101
0.00498488
0.000348113
0.00482073
0.000335993
0.00466218
0.000324724
0.00450886
0.000314202
0.0043604
0.000304441
0.00421646
0.000295324
0.00407672
0.000286904
0.00394089
0.000279038
0.00380866
0.000271824
0.00367979
0.000265084
0.00355398
0.00025897
0.00343101
0.000253253
0.00331061
0.000248157
0.0031926
0.000243379
0.00307668
0.000239233
0.00296272
0.00023532
0.00285043
0.000232068
0.00273968
0.000228956
0.0026302
0.000226558
0.00252189
0.00022419
0.00241445
0.000222619
0.00230783
0.000220938
0.00220169
0.000220159
0.00209607
0.00021909
0.00199058
0.000219046
0.00188534
0.000218487
0.00177991
0.000219109
0.00167452
0.000218926
0.00156868
0.000220108
0.00146275
0.000220113
0.00135619
0.000221702
0.00124952
0.000221648
0.00114214
0.000223428
0.00103479
0.000222972
0.000926793
0.000224649
0.000819162
0.000223384
0.000711104
0.000224643
0.00060396
0.000222103
0.000496802
0.000222545
0.00039138
0.000218162
0.000286578
0.000217293
0.000184461
0.00021087
8.39262e-05
0.000207869
-1.35597e-05
0.000200867
-0.00010727
0.000193482
-0.000199597
0.000189326
-0.000283548
0.000173318
-0.000367733
0.000170587
-0.000447568
0.000167207
-0.000505822
0.000112521
-0.000607518
0.000216888
-0.000600873
-2.52892e-05
-0.000752759
0.00031407
-0.000746531
2.93159e-06
-0.000762808
-4.96592e-06
-0.0008875
0.000300881
-0.000772264
-0.000301416
-0.00121251
0.00103179
-0.000577141
-0.00147954
-0.00166984
0.00239306
-0.00091943
-0.00153843
-0.000564531
-0.00101465
-0.0028691
0.0055121
0.000176267
-0.00703544
-0.00388552
0.00878342
-0.00169091
-0.0045128
-0.000515889
-0.00303347
-0.00676434
0.0151811
0.00142945
-0.0188935
-0.00681179
0.0168975
-0.00707865
0.00233939
0.00238382
-0.0215851
-0.00501393
0.0164933
0.00118515
-0.0130572
0.00449986
-0.00826548
0.00888746
0.0493758
0.0135366
-0.0481827
0.0503376
0.014555
0.0503537
0.0147032
0.0493295
0.0140902
0.0474826
0.0130275
0.0451058
0.0117568
0.0424709
0.0104427
0.0397844
0.00919073
0.0371811
0.00805626
0.0347355
0.00706012
0.0324797
0.0062019
0.0304196
0.00547011
0.0285469
0.00484875
0.0268463
0.00432113
0.0253009
0.00387187
0.0238938
0.00348764
0.0226091
0.0031573
0.0214328
0.00287169
0.0203526
0.00262335
0.0193576
0.00240621
0.0184384
0.00221535
0.0175869
0.00204672
0.0167959
0.00189703
0.0160593
0.00176354
0.0153717
0.001644
0.0147282
0.00153653
0.0141249
0.00143956
0.0135579
0.00135176
0.0130242
0.00127201
0.0125207
0.00119936
0.012045
0.00113298
0.0115948
0.00107219
0.011168
0.00101639
0.0107628
0.000965039
0.0103775
0.000917706
0.0100107
0.000873987
0.00966087
0.000833546
0.00932691
0.000796073
0.00900766
0.000761312
0.00870207
0.000729018
0.0084092
0.000698999
0.00812818
0.000671053
0.00785819
0.000645041
0.0075985
0.000620788
0.00734841
0.000598201
0.00710728
0.000577121
0.0068745
0.000557502
0.00664952
0.000539182
0.0064318
0.000522164
0.00622085
0.000506275
0.00601619
0.000491569
0.00581739
0.000477844
0.005624
0.000465218
0.00543564
0.000453439
0.00525191
0.000442707
0.00507246
0.000432701
0.0048969
0.000423717
0.00472494
0.000415339
0.00455619
0.000407986
0.0043904
0.000401111
0.00422718
0.00039529
0.00406632
0.00038981
0.00390743
0.000385448
0.00375035
0.000381271
0.00359465
0.000378317
0.00344024
0.000375351
0.00328666
0.000373742
0.00313388
0.000371865
0.00298143
0.000371506
0.00282936
0.000370556
0.00267714
0.000371327
0.00252498
0.00037109
0.00237229
0.00037281
0.00221942
0.000372983
0.00206573
0.000375393
0.00191181
0.000375572
0.00175694
0.000378304
0.00160198
0.000377928
0.00144615
0.000380483
0.00129065
0.000378884
0.00113458
0.000380722
0.000979558
0.000377121
0.00082454
0.000377562
0.000671697
0.000371003
0.000519744
0.000369245
0.000371282
0.000359331
0.000225023
0.000354127
8.29093e-05
0.000342981
-5.38737e-05
0.000330266
-0.000189021
0.000324474
-0.000312175
0.000296473
-0.000436275
0.000294688
-0.000552436
0.000283368
-0.000641921
0.000202007
-0.000785672
0.00036064
-0.000787322
-2.36604e-05
-0.00100148
0.000528234
-0.000991642
-6.90709e-06
-0.00103327
3.66581e-05
-0.00119578
0.000463404
-0.00106046
-0.000436726
-0.00162464
0.00159596
-0.000821941
-0.00228222
-0.00227568
0.0038468
-0.00124068
-0.00257342
-0.000890475
-0.00136485
-0.00372151
0.00834314
0.00017408
-0.010931
-0.00532925
0.0142868
-0.0022822
-0.00755986
-0.000982959
-0.0043327
-0.00842206
0.0226202
0.00207763
-0.0293932
-0.00970119
0.0286764
-0.00907947
0.00171861
0.00309751
-0.0337621
-0.00655366
0.0261445
0.00216755
-0.0217784
0.0058751
-0.011973
0.0145672
0.0528334
0.0126393
-0.0519362
0.0538605
0.0135279
0.0545428
0.0140209
0.05461
0.014023
0.0540096
0.013628
0.0528107
0.0129556
0.0511429
0.0121105
0.0491525
0.0111811
0.0469743
0.0102344
0.0447189
0.00931549
0.0424686
0.00845219
0.0402795
0.00765926
0.038186
0.00694219
0.0362068
0.00630038
0.034349
0.00572959
0.032613
0.00522366
0.0309946
0.00477573
0.0294873
0.00437899
0.0280836
0.00402707
0.0267756
0.0037142
0.0255556
0.00343532
0.0244163
0.00318602
0.0233509
0.00296248
0.022353
0.00276144
0.0214169
0.00258007
0.0205375
0.00241599
0.0197099
0.00226711
0.01893
0.00213167
0.0181939
0.00200812
0.0174981
0.00189515
0.0168395
0.00179162
0.0162152
0.00169652
0.0156226
0.00160899
0.0150593
0.00152828
0.0145233
0.00145372
0.0140125
0.00138473
0.0135253
0.00132081
0.0130598
0.00126149
0.0126148
0.00120639
0.0121886
0.00115513
0.0117802
0.00110743
0.0113883
0.00106298
0.0110118
0.00102156
0.0106496
0.000982908
0.010301
0.000946874
0.00996485
0.000913222
0.00964049
0.000881864
0.0093271
0.00085257
0.00902395
0.00082532
0.00873035
0.000799871
0.00844565
0.000776276
0.00816924
0.000754255
0.00790051
0.000733948
0.00763894
0.000715016
0.00738394
0.000697705
0.00713506
0.000681588
0.00689174
0.000667041
0.00665356
0.000653514
0.00642001
0.000641543
0.00619071
0.000630411
0.00596514
0.00062086
0.00574299
0.000611957
0.00552373
0.00060471
0.0053071
0.000597897
0.00509255
0.000592869
0.00487989
0.000588007
0.00466854
0.000585097
0.0044584
0.000582005
0.00424884
0.000581066
0.0040399
0.000579505
0.00383087
0.000580352
0.00362196
0.000580004
0.00341242
0.000582358
0.00320263
0.000582772
0.0029918
0.00058623
0.00278058
0.000586794
0.0025681
0.000590786
0.00235538
0.000590653
0.00214146
0.000594405
0.00192779
0.000592554
0.0017133
0.000595219
0.00149997
0.000590449
0.00128657
0.000590958
0.00107578
0.000581793
0.000866095
0.000578927
0.00066076
0.000564665
0.000458259
0.000556628
0.00026111
0.00054013
7.08581e-05
0.000520518
-0.00011717
0.000512503
-0.000289262
0.000468567
-0.000463042
0.000468469
-0.000624516
0.000444842
-0.000754291
0.000331782
-0.000948424
0.000554773
-0.000966076
-5.95606e-06
-0.00125156
0.000813716
-0.0012414
-1.70702e-05
-0.00131861
0.000113875
-0.00152305
0.000667858
-0.00137251
-0.000587256
-0.00206316
0.00228661
-0.00110161
-0.00324376
-0.00292794
0.00567313
-0.00159794
-0.00390339
-0.00129615
-0.00166662
-0.00458649
0.0116335
0.000141129
-0.0156586
-0.00687966
0.0213075
-0.00294415
-0.0114954
-0.00164987
-0.00562694
-0.00993922
0.0309095
0.00285921
-0.0421916
-0.0128683
0.044404
-0.0110713
-8.10273e-05
0.00367258
-0.0485061
-0.00804459
0.0378617
0.00352354
-0.0333465
0.00725936
-0.0157088
0.0219014
0.0565528
0.011953
-0.0558664
0.0574054
0.0126753
0.0582009
0.0132254
0.0587264
0.0134974
0.0588597
0.0134947
0.058555
0.0132603
0.0578217
0.0128439
0.0567075
0.0122953
0.0552811
0.0116608
0.0536179
0.0109787
0.0517913
0.0102788
0.0498667
0.0095838
0.0478988
0.00891007
0.0459307
0.00826857
0.0439942
0.00766604
0.0421119
0.00710591
0.0402986
0.00658912
0.0385627
0.00611487
0.0369085
0.00568123
0.0353371
0.0052856
0.0338474
0.00492505
0.0324369
0.00459656
0.0311022
0.00429716
0.0298396
0.00402407
0.028645
0.0037747
0.0275143
0.00354667
0.0264435
0.00333786
0.0254289
0.00314634
0.0244666
0.0029704
0.0235532
0.0028085
0.0226856
0.0026593
0.0218605
0.00252157
0.0210753
0.00239424
0.0203272
0.00227637
0.0196138
0.0021671
0.0189329
0.00206567
0.0182822
0.00197141
0.01766
0.00188372
0.0170643
0.00180207
0.0164935
0.00172596
0.0159459
0.00165499
0.0154202
0.00158873
0.0149148
0.00152688
0.0144287
0.00146908
0.0139604
0.00141511
0.013509
0.00136464
0.0130733
0.00131755
0.0126524
0.0012735
0.0122452
0.00123247
0.011851
0.00119412
0.0114688
0.00115849
0.0110978
0.00112523
0.0107373
0.00109448
0.0103865
0.00106581
0.0100447
0.00103952
0.0097112
0.00101505
0.00938537
0.000992873
0.00906661
0.000972275
0.00875423
0.000953931
0.00844771
0.000936923
0.00814639
0.000922187
0.00784981
0.000908532
0.00755729
0.000897231
0.00726846
0.000886728
0.00698259
0.000878736
0.00669941
0.000871189
0.00641815
0.000866358
0.00613864
0.000861512
0.00586008
0.000859632
0.00558243
0.000857156
0.00530483
0.00085796
0.00502743
0.000857407
0.0047493
0.000860493
0.00447085
0.000861223
0.00419107
0.000866008
0.00391072
0.000867149
0.00362871
0.000872799
0.00334624
0.000873133
0.00306212
0.000878525
0.00277809
0.000876581
0.00249286
0.000880456
0.00220883
0.000874479
0.00192453
0.000875257
0.00164324
0.000863083
0.00136316
0.000858998
0.00108833
0.000839495
0.000816917
0.000828042
0.000552198
0.000804849
0.000295768
0.000776948
4.26479e-05
0.000765624
-0.000190021
0.000701237
-0.000425557
0.000704005
-0.000643325
0.00066261
-0.000824623
0.000513081
-0.00107916
0.000809308
-0.00112286
3.77012e-05
-0.00148994
0.00118079
-0.00148473
-2.22285e-05
-0.00160998
0.00023913
-0.00186089
0.000918784
-0.00170191
-0.000746228
-0.00252218
0.00310688
-0.00141163
-0.0043543
-0.00361763
0.00787912
-0.00199134
-0.00552966
-0.00178114
-0.0018768
-0.0054622
0.0153145
7.04512e-05
-0.0211913
-0.00850273
0.0298807
-0.00367957
-0.0163185
-0.00254592
-0.00676055
-0.0113385
0.039702
0.00377449
-0.0573046
-0.0161628
0.0643413
-0.0130646
-0.00317668
0.00395707
-0.0655278
-0.00944767
0.0512664
0.00526958
-0.0480638
0.00863518
-0.0190744
0.0309808
0.0605572
0.0113903
-0.0599946
0.0612409
0.0119916
0.0619548
0.0125116
0.0625759
0.0128763
0.0630068
0.0130637
0.0631835
0.0130836
0.0630704
0.012957
0.062657
0.0127087
0.0619534
0.0123644
0.0609844
0.0119477
0.0597845
0.0114787
0.0583933
0.010975
0.056852
0.0104513
0.0552009
0.00991968
0.0534768
0.00939013
0.0517122
0.00887054
0.0499343
0.00836697
0.0481654
0.00788383
0.0464225
0.00742409
0.0447186
0.0069895
0.0430629
0.00658084
0.0414613
0.0061981
0.0399178
0.00584072
0.0384341
0.00550772
0.0370109
0.00519792
0.0356477
0.00490995
0.0343431
0.00464241
0.0330956
0.00439388
0.031903
0.00416298
0.0307631
0.00394837
0.0296736
0.00374882
0.028632
0.00356316
0.027636
0.0033903
0.0266831
0.00322925
0.0257711
0.00307911
0.0248977
0.00293902
0.0240609
0.00280824
0.0232585
0.00268606
0.0224887
0.00257186
0.0217496
0.00246504
0.0210395
0.00236511
0.0203567
0.00227155
0.0196996
0.00218398
0.0190667
0.00210194
0.0184567
0.00202517
0.0178681
0.00195322
0.0172997
0.00188594
0.0167503
0.00182292
0.0162187
0.00176407
0.0157038
0.001709
0.0152046
0.00165773
0.01472
0.0016098
0.0142491
0.0015654
0.0137909
0.00152397
0.0133446
0.00148586
0.0129093
0.00145037
0.012484
0.0014181
0.0120682
0.00138812
0.0116608
0.00136129
0.0112613
0.00133645
0.0108687
0.00131476
0.0104825
0.00129473
0.0101018
0.00127794
0.00972611
0.00126244
0.00935446
0.00125039
0.00898648
0.00123917
0.00862121
0.00123164
0.00825837
0.00122435
0.00789693
0.00122107
0.00753681
0.00121728
0.0071769
0.00121788
0.00681732
0.00121699
0.0064569
0.00122092
0.00609607
0.00122205
0.00573357
0.00122852
0.00537024
0.00123048
0.00500472
0.00123832
0.00463842
0.00123944
0.00426988
0.00124707
0.00390115
0.00124531
0.00353063
0.00125097
0.00316125
0.00124386
0.00279121
0.0012453
0.00242449
0.0012298
0.00205894
0.00122455
0.00169951
0.00119892
0.00134398
0.00118358
0.000996604
0.00115222
0.000658979
0.00111457
0.000326438
0.00109817
1.91877e-05
0.00100849
-0.000293967
0.00101716
-0.000581252
0.000949895
-0.000828036
0.000759865
-0.00115525
0.00113653
-0.00123755
0.000120021
-0.00169815
0.0016414
-0.00170577
-1.46859e-05
-0.00189404
0.000427408
-0.00219652
0.00122128
-0.00203862
-0.00090412
-0.00299248
0.00406074
-0.00174386
-0.00560291
-0.00433249
0.0104677
-0.00241703
-0.00744509
-0.00233989
-0.00195389
-0.00634905
0.0193237
-3.52074e-05
-0.0275052
-0.0101607
0.0400062
-0.00448515
-0.0219941
-0.00368821
-0.00755745
-0.0126724
0.0486861
0.00480367
-0.0747808
-0.019395
0.0885401
-0.0150558
-0.00751675
0.00379059
-0.0843741
-0.0107553
0.0658123
0.00738208
-0.0662012
0.00999268
-0.021685
0.0418088
0.0648405
0.0109063
-0.0643564
0.0654054
0.0114268
0.0660124
0.0119046
0.0665964
0.0122922
0.0670949
0.0125653
0.0674592
0.0127192
0.0676541
0.0127621
0.0676554
0.0127073
0.0674501
0.0125697
0.0670339
0.0123639
0.0664105
0.0121022
0.0655903
0.0117951
0.0645893
0.0114523
0.0634273
0.0110816
0.0621271
0.0106904
0.0607127
0.0102849
0.0592085
0.00987118
0.0576379
0.00945439
0.0560228
0.00903926
0.0543824
0.00862984
0.0527338
0.00822948
0.0510911
0.00784088
0.0494657
0.00746606
0.047867
0.00710648
0.0463019
0.00676304
0.0447756
0.00643622
0.0432919
0.00612613
0.0418532
0.00583262
0.0404608
0.00555531
0.0391155
0.00529369
0.0378172
0.00504713
0.0365654
0.00481496
0.0353592
0.00459646
0.0341976
0.00439091
0.0330791
0.00419759
0.0320023
0.00401579
0.0309657
0.00384486
0.0299676
0.00368413
0.0290065
0.00353301
0.0280806
0.00339092
0.0271884
0.00325733
0.0263282
0.00313171
0.0254985
0.00301365
0.0246978
0.00290264
0.0239246
0.00279838
0.0231775
0.00270037
0.022455
0.00260844
0.0217558
0.00252209
0.0210786
0.00244125
0.0204222
0.00236541
0.0197853
0.00229463
0.0191668
0.00222833
0.0185654
0.00216675
0.0179802
0.00210919
0.01741
0.0020561
0.0168537
0.00200661
0.0163104
0.00196143
0.0157791
0.00191945
0.0152587
0.0018817
0.0147484
0.00184676
0.0142471
0.00181605
0.0137541
0.00178773
0.0132682
0.00176378
0.0127889
0.00174175
0.012315
0.00172431
0.0118459
0.00170824
0.0113805
0.00169708
0.0109183
0.00168654
0.0104581
0.00168129
0.00999966
0.00167571
0.00954163
0.00167592
0.00908409
0.00167453
0.00862555
0.00167946
0.00816648
0.00168113
0.00770528
0.00168973
0.00724291
0.00169286
0.00677766
0.00170357
0.00631116
0.00170594
0.00584157
0.00171666
0.00537137
0.00171552
0.00489853
0.00172382
0.00442658
0.00171581
0.00395327
0.0017186
0.00348348
0.00169959
0.00301453
0.0016935
0.00255253
0.00166092
0.00209468
0.00164142
0.00164656
0.00160034
0.00120954
0.0015516
0.000779475
0.00152823
0.000376903
0.00141106
-3.00552e-05
0.00142412
-0.000401272
0.00132111
-0.000731109
0.0010897
-0.00114585
0.00155127
-0.00128247
0.000256644
-0.00185081
0.00220974
-0.00188205
1.66394e-05
-0.0021514
0.000696761
-0.00251141
0.0015813
-0.00236785
-0.00104766
-0.00346019
0.00515308
-0.00208552
-0.00697756
-0.00505656
0.0134388
-0.00286584
-0.00963578
-0.00296002
-0.00185979
-0.00724813
0.0236118
-0.000157199
-0.0345961
-0.0118169
0.051666
-0.00535034
-0.0284607
-0.00507115
-0.00783649
-0.0140136
0.0576285
0.00590631
-0.0947007
-0.0223543
0.116801
-0.0170032
-0.0128677
0.00305403
-0.104431
-0.0119903
0.0808566
0.00979035
-0.087982
0.0113331
-0.0232277
0.0543253
0.0694116
0.0104791
-0.0689844
0.0698946
0.0109437
0.0704145
0.0113847
0.0709357
0.0117711
0.0714185
0.0120825
0.0718291
0.0123086
0.0721415
0.0124497
0.0723363
0.0125125
0.0723994
0.0125067
0.0723207
0.0124426
0.0720932
0.0123296
0.0717133
0.0121751
0.0711802
0.0119854
0.0704962
0.0117656
0.0696669
0.0115197
0.0687007
0.0112512
0.0676087
0.0109631
0.0664044
0.0106587
0.0651028
0.0103409
0.0637196
0.010013
0.0622709
0.00967816
0.0607724
0.00933942
0.0592387
0.00899973
0.0576834
0.0086618
0.0561185
0.00832799
0.0545544
0.00800034
0.0529999
0.00768055
0.0514626
0.00736994
0.0499484
0.00706952
0.0484621
0.00678001
0.0470073
0.00650189
0.0455869
0.0062354
0.0442027
0.00598064
0.042856
0.00573755
0.0415477
0.00550597
0.0402778
0.00528564
0.0390464
0.00507628
0.037853
0.00487752
0.036697
0.00468902
0.0355775
0.00451035
0.0344937
0.00434117
0.0334444
0.00418102
0.0324284
0.0040296
0.0314446
0.00388643
0.0304917
0.00375127
0.0295685
0.00362363
0.0286735
0.00350338
0.0278057
0.00338997
0.0269635
0.0032834
0.0261458
0.00318307
0.0253514
0.00308912
0.0245788
0.00300086
0.023827
0.00291862
0.0230946
0.00284155
0.0223805
0.00277024
0.0216835
0.00270362
0.0210023
0.0026426
0.020336
0.00258581
0.0196831
0.00253454
0.0190428
0.00248703
0.0184138
0.00244506
0.0177952
0.00240636
0.0171856
0.00237337
0.0165843
0.0023431
0.0159897
0.00231883
0.0154014
0.00229659
0.0148177
0.00228076
0.0142382
0.00226603
0.0136613
0.00225822
0.0130867
0.00225032
0.0125126
0.00224996
0.0119392
0.00224793
0.0113646
0.00225412
0.0107892
0.00225652
0.010211
0.00226789
0.00963124
0.00227267
0.0090476
0.00228722
0.00846204
0.00229149
0.00787224
0.00230647
0.00728112
0.00230664
0.00668613
0.00231881
0.00609152
0.00231041
0.00549447
0.00231566
0.00490085
0.0022932
0.00430735
0.00228701
0.00372147
0.0022468
0.00313967
0.00222322
0.00256918
0.00217083
0.00201089
0.00210989
0.00146174
0.00207738
0.000943244
0.00192956
0.000424521
0.00194284
-5.26678e-05
0.0017983
-0.000489506
0.00152654
-0.0010096
0.00207136
-0.00121994
0.000466986
-0.00191338
0.00290319
-0.00198259
8.57806e-05
-0.00235466
0.00106885
-0.00277942
0.00200607
-0.00266842
-0.00115866
-0.00390505
0.00638971
-0.00241783
-0.00846476
-0.00576921
0.0167902
-0.00332148
-0.0120835
-0.00362067
-0.00156029
-0.00815793
0.028149
-0.000324742
-0.0424293
-0.0134402
0.0647815
-0.00625639
-0.0356445
-0.00665808
-0.00743481
-0.0154337
0.066404
0.00702987
-0.117164
-0.024838
0.148669
-0.0188036
-0.0189022
0.00172571
-0.124961
-0.0131793
0.0957616
0.0123872
-0.113548
0.0126707
-0.0235111
0.0683894
0.0742898
0.0100964
-0.0739071
0.0747137
0.0105198
0.0751678
0.0109306
0.0756314
0.0113075
0.0760786
0.0116352
0.0764849
0.0119023
0.0768306
0.0121041
0.0771009
0.0122422
0.0772855
0.0123221
0.077377
0.012351
0.0773697
0.0123369
0.0772583
0.0122864
0.0770386
0.0122051
0.0767065
0.0120976
0.0762591
0.0119671
0.0756943
0.0118159
0.075012
0.0116455
0.0742138
0.0114569
0.0733036
0.0112511
0.0722876
0.0110291
0.0711735
0.0107922
0.069971
0.0105419
0.0686907
0.0102801
0.0673439
0.0100086
0.0659423
0.00972963
0.0644973
0.00944535
0.0630199
0.00915792
0.0615205
0.00886938
0.0600084
0.00858163
0.058492
0.00829638
0.0569788
0.00801511
0.0554751
0.00773911
0.0539863
0.00746942
0.0525169
0.0072069
0.0510707
0.00695222
0.0496504
0.00670587
0.0482585
0.00646821
0.0468965
0.00623946
0.0455658
0.00601976
0.044267
0.00580913
0.0430006
0.00560758
0.0417666
0.00541495
0.040565
0.00523121
0.0393954
0.00505609
0.0382571
0.00488955
0.0371495
0.0047312
0.0360718
0.00458107
0.0350231
0.00443869
0.0340023
0.00430415
0.0330085
0.00417689
0.0320405
0.00405715
0.0310972
0.0039442
0.0301773
0.0038385
0.0292797
0.0037391
0.0284032
0.00364676
0.0275466
0.00356025
0.0267085
0.00348069
0.0258878
0.00340647
0.0250832
0.00333919
0.0242935
0.00327673
0.0235172
0.00322131
0.0227534
0.00317015
0.0220005
0.00312627
0.0212576
0.00308601
0.020523
0.00305346
0.0197959
0.0030237
0.0190745
0.00300218
0.0183582
0.00298235
0.017645
0.00297142
0.0169345
0.00296073
0.0162248
0.00295974
0.0155157
0.00295703
0.0148049
0.00296491
0.014093
0.00296841
0.0133774
0.00298347
0.0126595
0.00299063
0.0119364
0.00301033
0.0112104
0.00301749
0.0104785
0.00303835
0.00974424
0.0030409
0.00900434
0.00305871
0.0082639
0.00305085
0.00751933
0.00306023
0.00677774
0.00303479
0.00603494
0.00302981
0.00530012
0.00298161
0.00456878
0.00295455
0.00385023
0.00288939
0.00314454
0.00281558
0.00245047
0.00277146
0.00178996
0.00259007
0.00113279
0.00260002
0.000519183
0.0024119
-4.66525e-05
0.00209238
-0.000691436
0.00271614
-0.00099915
0.000774704
-0.00183965
0.0037437
-0.00196469
0.000210865
-0.0024659
0.00157006
-0.0029644
0.00250458
-0.00291055
-0.00121249
-0.00429812
0.00777728
-0.00271415
-0.0100487
-0.00644355
0.0205195
-0.00375873
-0.0147683
-0.00429136
-0.00102587
-0.00906966
0.0329273
-0.00053261
-0.0509663