/*--------------------------------*- C++ -*----------------------------------*\
| =========                 |                                                 |
| \\      /  F ield         | OpenFOAM: The Open Source CFD Toolbox           |
|  \\    /   O peration     | Version:  2412                                  |
|   \\  /    A nd           | Website:  www.openfoam.com                      |
|    \\/     M anipulation  |                                                 |
\*---------------------------------------------------------------------------*/
FoamFile
{
    version     2.0;
    format      ascii;
    arch        "LSB;label=32;scalar=64";
    class       volScalarField;
    location    "0.235";
    object      Co;
}
// * * * * * * * * * * * * * * * * * * * * * * * * * * * * * * * * * * * * * //

dimensions      [0 0 0 0 0 0 0];

internalField   nonuniform List<scalar> 
12600
(
0.313748
0.176089
0.0997514
0.0628021
0.0448972
0.0350109
0.0286315
0.0240634
0.020598
0.0178684
0.0156585
0.013832
0.0122978
0.0109921
0.00986914
0.00889456
0.00804238
0.00729241
0.00662871
0.00603849
0.0055114
0.00503891
0.00461395
0.00423061
0.00388388
0.00356951
0.00328386
0.00302379
0.00278659
0.00256988
0.0023716
0.00218992
0.00202324
0.00187014
0.00172935
0.00159976
0.00148036
0.00137025
0.00126863
0.00117477
0.00108802
0.00100778
0.000933525
0.000864767
0.000801063
0.000742018
0.000687262
0.000636469
0.000589333
0.000545582
0.000504957
0.000467236
0.000432199
0.000399662
0.000369442
0.000341388
0.000315348
0.000291197
0.000268819
0.000248112
0.00022899
0.000211362
0.000195157
0.000180275
0.00016663
0.000154098
0.000142567
0.000131895
0.000121941
0.000112518
0.000103436
9.4469e-05
8.56071e-05
7.69519e-05
6.90707e-05
6.25434e-05
5.78285e-05
5.47454e-05
5.20088e-05
4.88218e-05
4.48741e-05
4.05094e-05
3.66103e-05
3.33726e-05
3.04668e-05
2.78818e-05
2.71197e-05
2.78811e-05
2.9689e-05
3.21313e-05
3.43838e-05
3.64825e-05
3.83796e-05
4.06938e-05
4.31786e-05
4.57105e-05
4.69006e-05
4.67262e-05
4.43503e-05
4.18065e-05
3.90488e-05
3.60118e-05
3.52005e-05
3.72103e-05
4.08161e-05
4.59607e-05
5.18884e-05
5.72022e-05
6.24561e-05
6.64635e-05
7.02996e-05
7.27005e-05
7.50242e-05
7.58968e-05
7.73939e-05
7.75274e-05
7.91452e-05
7.93319e-05
8.29721e-05
8.84205e-05
0.476456
0.375352
0.275559
0.20194
0.152789
0.120316
0.0980792
0.0820339
0.0699034
0.0603974
0.0527423
0.0464465
0.0411814
0.0367188
0.0328943
0.0295862
0.0267023
0.0241715
0.0219374
0.0199555
0.0181895
0.0166096
0.0151914
0.0139144
0.0127613
0.0117175
0.0107705
0.00990947
0.00912519
0.00840957
0.00775557
0.007157
0.00660844
0.00610508
0.00564265
0.00521739
0.0048259
0.00446518
0.00413252
0.0038255
0.00354192
0.00327982
0.00303742
0.00281311
0.00260541
0.00241302
0.00223471
0.0020694
0.00191609
0.00177388
0.00164191
0.00151944
0.00140576
0.00130027
0.00120235
0.00111149
0.00102721
0.000949076
0.000876692
0.000809702
0.000747819
0.000690715
0.000638163
0.000589812
0.000545419
0.000504569
0.00046696
0.000432135
0.000399753
0.000369234
0.00034013
0.000311632
0.000283713
0.000256289
0.000230998
0.000209379
0.000193267
0.000182216
0.000173336
0.000163168
0.000150861
0.000136946
0.000124511
0.000114188
0.000105037
9.65039e-05
9.57587e-05
9.93314e-05
0.000105651
0.000113166
0.000119507
0.000125337
0.000130898
0.000137944
0.000145351
0.000151931
0.00015358
0.000150745
0.000141842
0.000133795
0.000126656
0.000120657
0.000121514
0.000131418
0.000145222
0.000162592
0.000181166
0.000196574
0.000211768
0.000222562
0.000233227
0.000238987
0.000245283
0.000246623
0.000251327
0.000250518
0.000256464
0.000255438
0.00026902
0.000285153
0.510937
0.467217
0.39611
0.324519
0.263823
0.215951
0.179216
0.151007
0.129008
0.111511
0.0973227
0.0856177
0.0758192
0.0675149
0.060403
0.054258
0.0489079
0.0442191
0.0400862
0.036425
0.0331672
0.0302569
0.027648
0.0253018
0.023186
0.0212731
0.0195395
0.0179651
0.0165326
0.0152268
0.0140347
0.0129446
0.0119465
0.0110314
0.0101914
0.00941952
0.00870949
0.00805574
0.00745324
0.00689754
0.0063846
0.0059108
0.00547285
0.0050678
0.00469296
0.00434591
0.00402443
0.00372655
0.0034504
0.00319437
0.00295689
0.00273663
0.00253227
0.0023427
0.00216682
0.0020037
0.00185243
0.00171221
0.00158232
0.00146207
0.00135095
0.00124831
0.00115378
0.00106669
0.000986688
0.000912989
0.000845187
0.000782431
0.000724351
0.000669889
0.00061849
0.000568392
0.000519469
0.000470692
0.000424883
0.000384425
0.0003538
0.000332722
0.000317318
0.00029986
0.000278687
0.00025369
0.000231448
0.000212967
0.000196611
0.000181759
0.00018319
0.000191831
0.000204193
0.000217252
0.000227232
0.000236256
0.000245459
0.000257488
0.000269854
0.000278991
0.000278387
0.000269521
0.000251587
0.000236709
0.000225263
0.000223034
0.000230226
0.000253472
0.0002818
0.000313954
0.000346528
0.000371172
0.000395739
0.000411586
0.000428085
0.000435144
0.000444698
0.00044457
0.000453161
0.000449325
0.000461845
0.000456796
0.000485437
0.000513317
0.502936
0.489713
0.451883
0.401624
0.349386
0.300861
0.258495
0.222716
0.192929
0.168191
0.147561
0.130232
0.115552
0.103011
0.0922139
0.0828508
0.0746791
0.0675062
0.0611775
0.0555681
0.0505757
0.0461159
0.0421187
0.0385253
0.035286
0.0323587
0.0297073
0.0273008
0.0251124
0.0231188
0.0212998
0.0196376
0.0181165
0.0167228
0.0154442
0.01427
0.0131905
0.0121971
0.011282
0.0104385
0.00966026
0.00894175
0.00827791
0.00766423
0.00709655
0.00657119
0.00608473
0.00563414
0.00521661
0.00482964
0.00447086
0.00413821
0.0038297
0.00354362
0.0032783
0.00303231
0.00280425
0.00259287
0.00239708
0.00221578
0.00204818
0.00189327
0.00175053
0.00161887
0.0014979
0.00138636
0.00128383
0.00118896
0.00110151
0.00101983
0.000943396
0.00086911
0.00079671
0.000723565
0.000653927
0.00059093
0.000542901
0.000509926
0.000487156
0.000461587
0.000430558
0.00039271
0.000359347
0.000331443
0.000306684
0.000286876
0.000292049
0.000307604
0.000326996
0.000345633
0.00035866
0.000370285
0.000383052
0.000399965
0.000416907
0.000426729
0.000421395
0.000403716
0.000375374
0.000353965
0.000338766
0.000346552
0.000364632
0.000405686
0.000452057
0.000500552
0.000547818
0.000580569
0.000613749
0.000632978
0.000654279
0.000660777
0.000672967
0.000669683
0.000682821
0.00067397
0.00069506
0.000683215
0.000730732
0.000771047
0.486801
0.482041
0.463889
0.434067
0.397527
0.358567
0.320272
0.284537
0.252274
0.223727
0.198746
0.176996
0.158079
0.141601
0.127206
0.114588
0.103485
0.0936779
0.0849833
0.0772481
0.0703441
0.0641632
0.0586139
0.0536189
0.0491117
0.0450358
0.0413422
0.0379887
0.0349386
0.0321597
0.0296242
0.0273074
0.0251877
0.0232457
0.0214647
0.0198293
0.0183262
0.0169434
0.0156701
0.0144966
0.0134143
0.0124153
0.0114926
0.0106399
0.00985127
0.00912166
0.00844627
0.00782086
0.00724148
0.00670465
0.00620707
0.00574584
0.00531821
0.00492178
0.00455423
0.00421352
0.00389772
0.00360505
0.00333398
0.00308293
0.00285081
0.00263615
0.00243827
0.00225561
0.00208774
0.00193283
0.00179052
0.00165887
0.00153791
0.00142524
0.00132049
0.00121886
0.00111997
0.00101905
0.000922109
0.000832923
0.00076469
0.000717752
0.000686459
0.000651415
0.000609096
0.000556425
0.000510517
0.000471699
0.000437104
0.000414812
0.000425168
0.000448995
0.000475839
0.000499669
0.000514968
0.000528515
0.000544602
0.000565953
0.000586667
0.000595105
0.000582817
0.000554245
0.000515047
0.000488933
0.000473651
0.000494229
0.000527314
0.000589743
0.000656784
0.000722325
0.000784404
0.000823904
0.000864842
0.000885786
0.000910931
0.000915106
0.000929482
0.000921455
0.000939831
0.000924006
0.000955403
0.000934125
0.00100284
0.0010559
0.472651
0.467022
0.45613
0.438274
0.414575
0.386912
0.357174
0.326994
0.297595
0.269782
0.244015
0.220485
0.199208
0.180086
0.162959
0.147644
0.133953
0.121705
0.110735
0.100895
0.0920541
0.0840957
0.0769187
0.0704348
0.0645667
0.0592469
0.0544163
0.0500231
0.0460219
0.0423725
0.0390397
0.0359921
0.033202
0.0306449
0.0282987
0.0261439
0.024163
0.0223404
0.0206619
0.019115
0.0176882
0.0163713
0.015155
0.014031
0.0129916
0.01203
0.01114
0.0103159
0.00955251
0.00884527
0.00818981
0.00758232
0.00701916
0.00649714
0.00601324
0.00556473
0.00514908
0.00476389
0.00440714
0.00407669
0.00377114
0.00348844
0.00322777
0.00298699
0.00276567
0.00256129
0.00237363
0.00220001
0.00204088
0.00189289
0.00175596
0.00162324
0.00149432
0.00136184
0.00123394
0.00111493
0.0010237
0.0009605
0.000919067
0.000872637
0.000817177
0.00074751
0.000687467
0.000635985
0.00058989
0.000568696
0.00058526
0.000618146
0.00065227
0.000680499
0.000697094
0.000711749
0.000730692
0.000755678
0.00077901
0.000783942
0.000762854
0.000722026
0.000672339
0.000643351
0.000632172
0.000668164
0.000719742
0.000806099
0.000895544
0.000978099
0.00105466
0.00109941
0.00114723
0.00116828
0.00119644
0.00119664
0.00121292
0.00119864
0.00122293
0.00119824
0.00124131
0.00120829
0.0012989
0.00136451
0.461403
0.453121
0.443321
0.430293
0.413765
0.394181
0.372276
0.348893
0.324852
0.300852
0.277445
0.255032
0.233881
0.214143
0.195881
0.179091
0.163725
0.149705
0.136941
0.125332
0.11478
0.105189
0.096469
0.0885367
0.0813158
0.0747372
0.0687386
0.0632636
0.058262
0.0536883
0.049502
0.0456668
0.04215
0.0389223
0.0359574
0.0332316
0.0307237
0.0284144
0.0262864
0.0243242
0.0225135
0.0208416
0.019297
0.0178691
0.0165484
0.0153263
0.0141949
0.0131472
0.0121765
0.0112771
0.0104435
0.00967077
0.00895443
0.00829039
0.00767484
0.00710428
0.00657554
0.00608552
0.00563169
0.00521125
0.00482245
0.0044626
0.00413074
0.00382403
0.00354206
0.0032815
0.00304234
0.002821
0.00261846
0.00243024
0.00225666
0.00208849
0.00192547
0.00175726
0.00159459
0.00144208
0.00132496
0.00124289
0.00118918
0.0011289
0.00105805
0.00096899
0.000893004
0.000826824
0.000767329
0.000751684
0.000774972
0.000817048
0.000857681
0.000889101
0.000905787
0.000920526
0.000941585
0.000969037
0.000993579
0.000992943
0.000961651
0.000907841
0.000848677
0.000818916
0.00081495
0.000869327
0.000942107
0.00105389
0.00116666
0.00126558
0.00135597
0.00140441
0.00145826
0.0014779
0.00150839
0.0015031
0.0015211
0.00149913
0.00152989
0.00149461
0.00155019
0.00150369
0.00161517
0.00169253
0.452115
0.441764
0.431208
0.419395
0.405859
0.390559
0.373675
0.355517
0.336457
0.31688
0.297148
0.277581
0.258452
0.239976
0.222316
0.205583
0.189844
0.175129
0.161438
0.148748
0.137021
0.126208
0.116255
0.107103
0.0986936
0.0909706
0.0838792
0.0773676
0.0713875
0.065894
0.0608458
0.0562049
0.0519362
0.0480081
0.0443914
0.0410596
0.0379886
0.0351564
0.0325429
0.0301301
0.0279012
0.0258412
0.0239363
0.0221741
0.0205431
0.0190329
0.017634
0.0163379
0.0151365
0.0140229
0.0129903
0.0120328
0.0111449
0.0103216
0.00955821
0.00885047
0.00819448
0.00758641
0.00702319
0.00650129
0.00601861
0.00557173
0.00515952
0.00477837
0.0044279
0.00410386
0.00380646
0.00353107
0.00327932
0.00304535
0.00283003
0.00262145
0.00241973
0.00221127
0.0020098
0.00182002
0.00167392
0.00156996
0.00150128
0.00142416
0.00133529
0.00122419
0.00113018
0.00104695
0.000971914
0.000966809
0.000996725
0.00104741
0.00109319
0.00112617
0.00114146
0.00115498
0.00117709
0.00120549
0.00122967
0.00122156
0.00117911
0.0011121
0.00104487
0.00101636
0.00102238
0.00109719
0.00119299
0.00133061
0.00146691
0.00158108
0.00168445
0.00173503
0.00179416
0.00181099
0.00184331
0.00183114
0.00185074
0.00181972
0.00185728
0.00180996
0.00187817
0.00181718
0.00194686
0.00203441
0.444099
0.43242
0.42095
0.409105
0.396523
0.383068
0.368754
0.353678
0.337983
0.321838
0.305412
0.288877
0.272396
0.256119
0.240184
0.224707
0.209786
0.195499
0.1819
0.169025
0.156892
0.145505
0.134853
0.124918
0.115671
0.107081
0.0991143
0.091733
0.0849004
0.0785797
0.0727351
0.0673325
0.0623391
0.0577242
0.0534588
0.049516
0.0458709
0.0425001
0.0393822
0.0364974
0.0338274
0.0313555
0.0290662
0.0269453
0.0249798
0.0231578
0.0214682
0.0199012
0.0184474
0.0170987
0.0158471
0.0146858
0.0136081
0.0126082
0.0116805
0.0108201
0.0100222
0.00928227
0.00859672
0.00796125
0.00737338
0.00682892
0.0063266
0.00586189
0.0054345
0.00503908
0.00467617
0.00433988
0.00403255
0.0037467
0.00348395
0.00322941
0.00298391
0.00273035
0.00248587
0.00225489
0.00207645
0.00194711
0.0018602
0.00176273
0.00165282
0.00151674
0.00140227
0.00129933
0.00120813
0.00121692
0.00125267
0.00131063
0.00135959
0.00139208
0.00140414
0.00141475
0.00143648
0.00146399
0.00148616
0.00146887
0.00141473
0.00133457
0.0012608
0.00123516
0.00125331
0.00134947
0.00146916
0.00163201
0.00179145
0.00191945
0.00203489
0.00208612
0.00214988
0.0021627
0.0021965
0.00217623
0.00219728
0.00215595
0.00220027
0.00213988
0.00221998
0.00214439
0.00228814
0.00238345
0.437017
0.424484
0.41231
0.400161
0.387784
0.375042
0.3619
0.348392
0.334583
0.320553
0.306383
0.292149
0.277925
0.263786
0.249801
0.236038
0.222562
0.209435
0.196713
0.184444
0.172668
0.161416
0.150709
0.140559
0.13097
0.121938
0.113453
0.1055
0.0980604
0.091112
0.0846316
0.0785945
0.0729756
0.0677498
0.0628924
0.0583797
0.0541883
0.0502965
0.0466833
0.043329
0.040215
0.0373242
0.0346401
0.032148
0.0298336
0.0276841
0.0256874
0.0238325
0.0221092
0.0205081
0.0190204
0.0176382
0.0163542
0.0151616
0.0140541
0.0130259
0.0120718
0.0111863
0.0103654
0.00960399
0.00889934
0.00824638
0.00764375
0.00708595
0.00657278
0.00609768
0.00566154
0.00525703
0.00488728
0.00454294
0.00422652
0.00391997
0.00362518
0.00332135
0.00302947
0.00275318
0.00253867
0.00237995
0.00227099
0.00214917
0.00201483
0.0018505
0.00171275
0.00158711
0.00148709
0.00150457
0.00154459
0.00160769
0.00165731
0.00168676
0.00169335
0.00169892
0.00171842
0.0017429
0.0017614
0.00173341
0.00166732
0.00157413
0.00149515
0.00147321
0.00150483
0.00162198
0.00176548
0.00195196
0.00213371
0.00227397
0.0024006
0.00245116
0.00251897
0.0025268
0.0025619
0.00253253
0.00255472
0.00250202
0.00255254
0.00247865
0.00256887
0.00247947
0.00263206
0.00273182
0.430688
0.41758
0.404903
0.392451
0.380051
0.36758
0.354983
0.34226
0.329444
0.316586
0.303736
0.290941
0.278239
0.265665
0.253246
0.241008
0.228977
0.217178
0.205639
0.194388
0.183454
0.172863
0.162641
0.152809
0.143386
0.134384
0.125811
0.117671
0.109963
0.102681
0.0958173
0.0893598
0.0832951
0.0776077
0.0722811
0.0672979
0.0626404
0.0582906
0.0542309
0.050444
0.0469131
0.0436221
0.0405554
0.0376983
0.035037
0.0325582
0.0302496
0.0280998
0.0260979
0.0242341
0.0224989
0.0208839
0.019381
0.0179827
0.0166824
0.0154734
0.0143501
0.0133065
0.012338
0.0114388
0.0106061
0.00983387
0.00912078
0.00846025
0.00785232
0.00728905
0.00677175
0.00629146
0.00585214
0.00544232
0.00506563
0.00470062
0.0043507
0.00399123
0.0036474
0.00332147
0.00306681
0.00287424
0.00273885
0.00258824
0.00242572
0.00222949
0.00206521
0.00191355
0.00181233
0.00183194
0.00187382
0.00193912
0.00198633
0.00200972
0.00200812
0.00200593
0.00202089
0.00203992
0.00205307
0.002013
0.00193486
0.00182848
0.00174514
0.00172666
0.00177209
0.00190857
0.00207488
0.00228256
0.00248551
0.00263646
0.00277353
0.0028223
0.00289367
0.00289579
0.00293209
0.00289295
0.00291574
0.00285091
0.00290635
0.00281923
0.00291683
0.00281519
0.0029708
0.00307092
0.424981
0.411472
0.398438
0.385738
0.373255
0.360886
0.348567
0.336276
0.324021
0.311829
0.299737
0.287782
0.275994
0.264398
0.253012
0.241846
0.230907
0.220199
0.209726
0.199491
0.189502
0.179768
0.170299
0.161108
0.152208
0.14361
0.135328
0.12737
0.119745
0.112458
0.105512
0.0989051
0.0926363
0.0867
0.0810892
0.075795
0.0708071
0.0661144
0.0617044
0.0575647
0.0536822
0.0500439
0.0466366
0.0434476
0.0404644
0.0376749
0.0350674
0.0326309
0.0303549
0.0282296
0.0262454
0.0243937
0.0226663
0.0210555
0.0195542
0.0181555
0.0168536
0.0156418
0.0145157
0.0134687
0.0124979
0.0115965
0.0107635
0.00999116
0.00927982
0.00862012
0.0080139
0.00745032
0.00693429
0.00645194
0.00600822
0.00557815
0.00516715
0.00474657
0.00434614
0.00396615
0.00366693
0.00343556
0.00326891
0.00308474
0.00288993
0.00265779
0.00246326
0.00228192
0.00218129
0.00220065
0.00224119
0.00230496
0.00234616
0.00235994
0.00234691
0.00233359
0.00234119
0.002352
0.00235812
0.00230461
0.00221427
0.00209403
0.00200639
0.00198989
0.00204838
0.00220128
0.00238863
0.00261445
0.00283732
0.00299759
0.00314452
0.00319068
0.00326513
0.00326114
0.00329856
0.00324939
0.00327189
0.00319455
0.00325292
0.00315354
0.00325498
0.0031432
0.00329592
0.0033918
0.419804
0.40601
0.392717
0.379825
0.367249
0.35491
0.342745
0.330719
0.318819
0.307053
0.29544
0.284006
0.272777
0.261775
0.251019
0.240521
0.230286
0.220314
0.210602
0.201144
0.191933
0.182964
0.174233
0.165738
0.157478
0.149456
0.141676
0.134143
0.126863
0.11984
0.113081
0.106589
0.100367
0.0944177
0.0887401
0.0833329
0.0781929
0.0733156
0.068695
0.0643244
0.0601958
0.0563006
0.0526297
0.0491737
0.0459227
0.0428671
0.039997
0.0373031
0.0347758
0.0324063
0.0301859
0.0281063
0.0261598
0.0243388
0.0226367
0.0210463
0.0195621
0.0181773
0.0168875
0.0156858
0.0145697
0.0135317
0.0125711
0.0116792
0.010857
0.0100935
0.00939129
0.0087375
0.00813808
0.00757648
0.00705924
0.00655772
0.00607983
0.00559283
0.00513127
0.00469278
0.00434438
0.00406897
0.00386588
0.00364316
0.00341169
0.00313928
0.0029103
0.00269535
0.0025958
0.00261175
0.00264696
0.0027047
0.00273577
0.0027359
0.00270765
0.00267914
0.00267592
0.0026754
0.00267266
0.00260425
0.00250129
0.00236584
0.00227299
0.00225567
0.00232539
0.00249081
0.00269683
0.00293737
0.00317884
0.00334742
0.00350385
0.00354695
0.00362394
0.00361377
0.00365219
0.00359325
0.0036142
0.00352445
0.00358301
0.00347296
0.00357427
0.00345468
0.00359909
0.003686
0.415083
0.401083
0.387601
0.374563
0.361905
0.349563
0.337484
0.325628
0.31397
0.302503
0.29123
0.280162
0.269318
0.258714
0.248366
0.238289
0.228491
0.218976
0.209745
0.200792
0.19211
0.183688
0.175518
0.167588
0.15989
0.152415
0.145159
0.138116
0.131284
0.124664
0.118254
0.112058
0.106075
0.100309
0.0947618
0.0894337
0.0843257
0.0794374
0.0747677
0.0703144
0.0660742
0.0620433
0.0582167
0.0545888
0.0511536
0.0479045
0.0448344
0.0419363
0.0392029
0.0366271
0.0342016
0.0319196
0.0297742
0.0277588
0.0258675
0.0240937
0.0224325
0.0208773
0.0194245
0.0180671
0.0168032
0.0156249
0.0145323
0.0135159
0.0125775
0.0117047
0.0109011
0.0101515
0.00946312
0.00881654
0.00822014
0.00764148
0.00709149
0.00653328
0.00600644
0.00550528
0.0051031
0.00477838
0.00453352
0.00426725
0.00399464
0.0036774
0.00340933
0.00315654
0.00305685
0.00306546
0.00309071
0.00313721
0.0031536
0.00313559
0.00308779
0.0030393
0.00302114
0.00300567
0.00299199
0.00290697
0.00279058
0.00263773
0.00253774
0.00251555
0.00259376
0.00276719
0.00298919
0.00324104
0.0034999
0.00367629
0.00384208
0.00388212
0.00396099
0.00394488
0.00398407
0.00391616
0.00393401
0.00383238
0.00388792
0.00376916
0.00386636
0.00374128
0.00387287
0.00394647
0.410755
0.396606
0.382987
0.369839
0.357113
0.344758
0.332726
0.32098
0.309492
0.298244
0.287226
0.276439
0.26589
0.255587
0.245542
0.235764
0.226265
0.217052
0.208126
0.199489
0.191137
0.183062
0.175256
0.167709
0.160409
0.153345
0.146505
0.13988
0.13346
0.127238
0.121209
0.115367
0.10971
0.104234
0.0989401
0.0938262
0.0888926
0.0841394
0.0795663
0.0751732
0.0709592
0.0669232
0.0630632
0.059377
0.0558614
0.0525131
0.049328
0.0463017
0.0434294
0.0407062
0.0381271
0.0356869
0.0333804
0.0312024
0.0291484
0.0272128
0.0253919
0.0236798
0.022074
0.0205679
0.0191608
0.0178447
0.0166212
0.0154797
0.0144236
0.0134392
0.0125313
0.0116826
0.0109018
0.0101664
0.00948673
0.0088267
0.00820063
0.00756747
0.00697205
0.0064047
0.00594459
0.00556554
0.0052738
0.00495928
0.00464122
0.00427463
0.00396248
0.00366742
0.00356427
0.00356098
0.00357118
0.00360069
0.00359742
0.00355643
0.00348442
0.00341053
0.0033725
0.00333786
0.00331071
0.00320702
0.00307584
0.00290267
0.00279255
0.00276059
0.00284387
0.00302076
0.00325606
0.00351629
0.00379153
0.00397589
0.00415113
0.00418859
0.00426855
0.00424701
0.00428658
0.00421098
0.00422405
0.00411139
0.00416057
0.00403512
0.00412472
0.00399631
0.00411175
0.00416856
0.40677
0.392513
0.378794
0.365567
0.352788
0.340417
0.328412
0.31674
0.305371
0.294283
0.28346
0.272894
0.262582
0.252524
0.242726
0.233192
0.223929
0.214944
0.20624
0.197821
0.189686
0.181832
0.174254
0.166945
0.159895
0.153095
0.146534
0.140201
0.134084
0.128172
0.122456
0.116927
0.111577
0.106398
0.101386
0.0965363
0.0918442
0.0873077
0.0829245
0.078693
0.074612
0.0706804
0.0668969
0.0632604
0.0597694
0.0564222
0.0532167
0.0501506
0.0472212
0.0444257
0.041761
0.0392238
0.036811
0.0345187
0.0323442
0.0302833
0.028334
0.0264913
0.0247546
0.0231175
0.0215815
0.0201386
0.0187922
0.0175315
0.0163618
0.0152681
0.0142573
0.01331
0.0124364
0.011611
0.0108467
0.0101034
0.00939929
0.00868926
0.00802337
0.00738762
0.00686632
0.00642882
0.00608571
0.00571903
0.00535181
0.00493182
0.00457054
0.0042288
0.00411626
0.00409612
0.00408601
0.00409246
0.00406428
0.00399527
0.0038942
0.00378909
0.00372548
0.00366677
0.00362296
0.00349809
0.00335016
0.0031532
0.00302914
0.00298217
0.00306677
0.00324325
0.00348955
0.00375617
0.00404717
0.00424037
0.00442542
0.00446123
0.00454139
0.00451508
0.00455455
0.00447281
0.00447954
0.00435683
0.00439658
0.00426628
0.00434563
0.00421579
0.00431308
0.00435082
0.403086
0.388751
0.374962
0.361676
0.34886
0.336475
0.324487
0.312865
0.301582
0.290613
0.27994
0.269547
0.259426
0.249571
0.239981
0.230655
0.221596
0.212805
0.204287
0.196044
0.188076
0.180383
0.172962
0.16581
0.158919
0.152284
0.145895
0.139743
0.133819
0.128111
0.12261
0.117305
0.112186
0.107244
0.102471
0.097858
0.093399
0.0890876
0.0849187
0.0808879
0.0769914
0.0732262
0.0695897
0.0660797
0.0626941
0.0594313
0.0562894
0.0532667
0.0503615
0.047572
0.0448963
0.0423323
0.0398785
0.0375322
0.0352924
0.033156
0.0311229
0.0291889
0.0273556
0.0256172
0.0239776
0.022429
0.0209773
0.0196115
0.0183395
0.0171455
0.0160388
0.014998
0.0140357
0.0131233
0.0122765
0.0114515
0.0106705
0.00988436
0.00914839
0.00844399
0.00785994
0.00736136
0.00696367
0.00654231
0.00612344
0.00564713
0.00523208
0.00484053
0.00470887
0.0046667
0.00463122
0.00460872
0.00455026
0.0044482
0.00431339
0.00417127
0.00407571
0.00398724
0.00392272
0.00377372
0.00360649
0.00338211
0.00323981
0.00317291
0.0032553
0.00342879
0.00368461
0.00395699
0.00426361
0.00446723
0.00466266
0.00469811
0.00477763
0.00474721
0.00478607
0.00469977
0.00469895
0.00456713
0.00459497
0.00446133
0.00452875
0.00439912
0.00447753
0.00449524
0.399666
0.385277
0.371438
0.358113
0.34527
0.332877
0.320902
0.309318
0.298097
0.287218
0.276658
0.266402
0.256435
0.246747
0.237333
0.228187
0.219305
0.210689
0.202337
0.194251
0.18643
0.178874
0.171582
0.164551
0.157776
0.151254
0.144979
0.138942
0.133136
0.127553
0.122184
0.117019
0.11205
0.107266
0.102659
0.0982194
0.0939391
0.0898101
0.0858249
0.081977
0.0782601
0.0746689
0.0711984
0.0678446
0.0646036
0.0614722
0.0584475
0.0555268
0.0527079
0.0499886
0.0473673
0.0448418
0.0424111
0.0400731
0.0378276
0.035672
0.0336078
0.0316312
0.0297458
0.0279462
0.0262387
0.0246156
0.0230859
0.0216384
0.0202839
0.0190061
0.0178173
0.0166945
0.0156532
0.0146619
0.0137394
0.0128385
0.0119857
0.0111279
0.0103254
0.00955492
0.00890901
0.00834906
0.00789561
0.00741917
0.00694815
0.00641465
0.00594243
0.00549589
0.0053353
0.00526587
0.00520052
0.00514399
0.00505024
0.00491028
0.00473752
0.00455326
0.0044191
0.00429455
0.00420425
0.00402774
0.00383816
0.00358304
0.00341821
0.00332756
0.00340495
0.00357475
0.00383975
0.0041188
0.00444148
0.00465758
0.00486416
0.00490072
0.00497895
0.00494495
0.00498278
0.00489326
0.00488419
0.004744
0.00475827
0.00462238
0.00467716
0.00454912
0.004609
0.00460689
0.39648
0.382056
0.368184
0.354833
0.341974
0.329577
0.317614
0.306059
0.294887
0.284077
0.273606
0.263457
0.253614
0.244063
0.234796
0.225802
0.217077
0.208615
0.200414
0.192472
0.184787
0.177358
0.170184
0.163262
0.156588
0.15016
0.143972
0.138019
0.132296
0.126794
0.121508
0.116429
0.11155
0.106862
0.102358
0.0980272
0.0938632
0.0898574
0.0860017
0.0822887
0.078711
0.0752619
0.0719348
0.0687239
0.0656238
0.0626293
0.059736
0.0569397
0.0542367
0.0516236
0.0490978
0.0466561
0.0442972
0.042018
0.0398187
0.0376959
0.035652
0.0336827
0.031793
0.0299774
0.0282441
0.0265853
0.0250126
0.0235145
0.0221053
0.0207677
0.0195179
0.0183313
0.0172267
0.0161702
0.0151841
0.0142182
0.0133032
0.0123827
0.011521
0.0106907
0.00998705
0.00936856
0.00886092
0.00833196
0.00781107
0.00722261
0.00669231
0.00618742
0.00598524
0.00588346
0.00578437
0.00569039
0.00555745
0.00537527
0.00516108
0.00493093
0.00475196
0.00458467
0.00446247
0.0042547
0.0040394
0.00375102
0.00356004
0.00344358
0.00351444
0.00368196
0.00395706
0.0042451
0.0045848
0.00481567
0.00503424
0.00507337
0.0051499
0.0051127
0.00514924
0.00505745
0.00503994
0.00489194
0.00489178
0.00475439
0.00479657
0.00467114
0.00471361
0.00469273
0.393503
0.379056
0.365164
0.351798
0.338932
0.326536
0.314586
0.303056
0.291924
0.281169
0.270769
0.260705
0.250961
0.241523
0.232377
0.223513
0.214922
0.206596
0.19853
0.19072
0.183162
0.175853
0.168791
0.161972
0.155394
0.149053
0.142945
0.137066
0.131411
0.125974
0.120749
0.11573
0.11091
0.106282
0.101839
0.0975742
0.0934795
0.0895479
0.0857718
0.0821441
0.0786574
0.0753047
0.0720792
0.0689744
0.0659838
0.0631014
0.0603216
0.0576388
0.0550484
0.052545
0.0501253
0.0477844
0.0455201
0.0433276
0.0412068
0.0391528
0.0371679
0.0352464
0.0333941
0.031604
0.029886
0.028231
0.0266531
0.0251396
0.0237081
0.0223403
0.0210559
0.0198292
0.0186824
0.0175798
0.0165471
0.0155319
0.0145691
0.0135992
0.0126903
0.0118102
0.0110566
0.0103861
0.00982904
0.00925368
0.00868869
0.00805144
0.00746618
0.00690441
0.00664454
0.00650548
0.00636927
0.00623677
0.00606297
0.00583528
0.00557701
0.00529936
0.00507078
0.00485442
0.00469326
0.0044502
0.00420577
0.00388289
0.00366344
0.00352133
0.0035858
0.00375436
0.00404165
0.00434193
0.0046999
0.0049476
0.00517895
0.00522189
0.00529665
0.00525647
0.00529159
0.00519809
0.00517237
0.00501698
0.00500224
0.00486377
0.00489389
0.00477174
0.00479833
0.00476012
0.390711
0.376253
0.362351
0.348979
0.336112
0.323722
0.311786
0.300279
0.289182
0.278471
0.268129
0.258135
0.248472
0.239126
0.230081
0.221326
0.212849
0.204642
0.196696
0.189005
0.181563
0.174366
0.167409
0.16069
0.154205
0.147949
0.14192
0.136112
0.130522
0.125144
0.119973
0.115004
0.11023
0.105647
0.101248
0.0970254
0.0929741
0.0890872
0.0853582
0.0817804
0.0783473
0.0750524
0.0718892
0.0688512
0.0659323
0.0631261
0.0604269
0.0578283
0.0553254
0.0529119
0.0505837
0.0483344
0.0461614
0.0440582
0.0420241
0.0400522
0.0381445
0.0362933
0.0345045
0.0327689
0.0310973
0.0294784
0.0279282
0.0264317
0.0250095
0.0236415
0.0223507
0.0211101
0.0199451
0.0188188
0.0177597
0.0167147
0.0157219
0.0147197
0.0137789
0.0128629
0.0120709
0.0113583
0.0107598
0.0101478
0.00954821
0.00887251
0.00824084
0.00762661
0.00729507
0.00711452
0.0069375
0.0067679
0.00655531
0.00628078
0.00597652
0.0056522
0.00537184
0.00510143
0.00489372
0.00461114
0.00433438
0.00397738
0.00372902
0.00356387
0.00362379
0.00379804
0.00410035
0.00441636
0.00479379
0.00505982
0.00530447
0.00535218
0.00542534
0.00538234
0.00541597
0.005321
0.00528758
0.00512518
0.00509624
0.00495691
0.00497571
0.00485708
0.00486944
0.00481542
0.388085
0.373624
0.35972
0.34635
0.333487
0.321107
0.309186
0.297703
0.286636
0.275965
0.26567
0.255734
0.246139
0.236868
0.227908
0.219244
0.210865
0.20276
0.194919
0.187333
0.179996
0.172902
0.166046
0.159421
0.153025
0.146853
0.1409
0.135163
0.129637
0.124317
0.119199
0.114278
0.109549
0.105006
0.100643
0.0964548
0.092436
0.0885805
0.0848825
0.0813359
0.0779349
0.0746736
0.0715463
0.0685468
0.0656697
0.0629087
0.0602587
0.0577131
0.0552675
0.052915
0.0506518
0.0484706
0.0463689
0.0443388
0.0423796
0.0404825
0.0386496
0.036871
0.0351525
0.0334826
0.0318724
0.0303079
0.0288062
0.0273496
0.0259609
0.024617
0.0233443
0.0221137
0.0209532
0.0198252
0.0187603
0.0177057
0.016702
0.0156861
0.0147311
0.0137952
0.0129784
0.0122368
0.0116069
0.0109707
0.0103493
0.00964869
0.00898496
0.00832867
0.00791537
0.0076909
0.00746835
0.00726453
0.0070202
0.00670096
0.00634935
0.00598141
0.00565075
0.00532389
0.00506228
0.00473582
0.00442395
0.004035
0.00375961
0.00357621
0.00363487
0.00381993
0.00414022
0.00447498
0.00487266
0.00515775
0.00541582
0.00546899
0.00554087
0.00549522
0.00552729
0.00543094
0.0053904
0.00522147
0.00517899
0.00503894
0.00504717
0.00493193
0.00493161
0.00486317
0.385608
0.371151
0.357252
0.343888
0.331035
0.318668
0.306764
0.295304
0.284265
0.273629
0.263376
0.253489
0.243951
0.234744
0.225855
0.217268
0.208972
0.200955
0.193205
0.185712
0.17847
0.171469
0.164704
0.158168
0.151857
0.145764
0.139887
0.134219
0.128757
0.123497
0.118432
0.11356
0.108874
0.104371
0.100044
0.095888
0.0918987
0.0880703
0.0843974
0.0808745
0.0774964
0.0742573
0.0711525
0.0681759
0.0653229
0.0625874
0.0599652
0.0574497
0.0550372
0.0527207
0.0504972
0.0483589
0.0463041
0.044324
0.0424183
0.0405773
0.0388033
0.0370846
0.0354276
0.0338182
0.0322683
0.0307606
0.0293137
0.0279062
0.0265627
0.0252572
0.0240179
0.0228141
0.0216747
0.0205627
0.0195091
0.0184622
0.0174649
0.0164521
0.0155
0.0145602
0.0137324
0.0129761
0.0123251
0.0116776
0.0110494
0.0103384
0.009661
0.00898021
0.008482
0.00821477
0.00794079
0.00770495
0.0074411
0.00708462
0.00668497
0.00627755
0.00590214
0.00552038
0.00519872
0.00482404
0.00447483
0.00405778
0.00375952
0.00356438
0.00362596
0.0038265
0.00416729
0.00452289
0.00494101
0.00524511
0.00551636
0.00557546
0.00564643
0.00559838
0.00562872
0.00553103
0.00548393
0.00530912
0.00525393
0.00511322
0.00511152
0.00499928
0.00498769
0.00490601
0.383264
0.368816
0.354928
0.341575
0.328735
0.316384
0.3045
0.293062
0.282051
0.271447
0.261232
0.251388
0.241898
0.232746
0.223917
0.215397
0.207171
0.199229
0.191558
0.184147
0.176988
0.170071
0.163389
0.156935
0.150703
0.144687
0.138882
0.133282
0.127884
0.122682
0.117671
0.112848
0.108207
0.103744
0.099453
0.0953304
0.0913707
0.0875689
0.0839201
0.080419
0.0770609
0.0738403
0.0707528
0.0677927
0.0649559
0.0622364
0.0596308
0.0571325
0.0547387
0.0524421
0.0502408
0.0481269
0.0460992
0.0441489
0.0422764
0.0404714
0.0387367
0.0370598
0.0354477
0.0338843
0.0323828
0.0309227
0.0295245
0.0281627
0.0268643
0.0255997
0.024398
0.0232282
0.0221177
0.0210318
0.0199996