/*--------------------------------*- C++ -*----------------------------------*\
| =========                 |                                                 |
| \\      /  F ield         | OpenFOAM: The Open Source CFD Toolbox           |
|  \\    /   O peration     | Version:  2412                                  |
|   \\  /    A nd           | Website:  www.openfoam.com                      |
|    \\/     M anipulation  |                                                 |
\*---------------------------------------------------------------------------*/
FoamFile
{
    version     2.0;
    format      ascii;
    arch        "LSB;label=32;scalar=64";
    class       volVectorField;
    location    "1.17";
    object      ddt0(U);
}
// * * * * * * * * * * * * * * * * * * * * * * * * * * * * * * * * * * * * * //

dimensions      [0 1 -2 0 0 0 0];

internalField   nonuniform List<vector> 
12600
(
(2.42285 0 -13.3136)
(-13.7205 2.14661e-18 -4.09925)
(-6.92696 -2.51699e-18 -1.58493)
(-7.3244 0 -1.11902)
(-8.04819 3.29255e-19 -0.455237)
(-8.64426 0 -0.481247)
(-9.63203 -4.39433e-18 -1.09542)
(-9.4976 0 -1.59043)
(-7.17228 0 -1.06913)
(-1.17807 0 2.03427)
(7.46301 0 6.31582)
(13.8244 -1.47009e-18 8.87997)
(14.1828 2.30316e-17 7.96849)
(5.794 0 2.8878)
(-6.35001 -5.18288e-17 -3.39764)
(-15.4906 0 -7.68964)
(-17.0037 -4.38339e-18 -7.35718)
(-7.45234 0 -1.97138)
(8.73674 3.76482e-17 5.72705)
(17.5998 0 10.7911)
(11.9561 0 10.5826)
(25.9124 0 15.2266)
(22.1598 -3.54135e-16 4.76685)
(-26.4043 4.70888e-16 -8.77969)
(63.8198 5.82686e-17 28.9218)
(60.5474 -4.52843e-16 -27.0135)
(-57.7086 0 -60.7469)
(-81.0676 0 -50.8015)
(-40.8038 0 -19.8576)
(-5.54763 -1.50525e-16 -0.988173)
(7.08801 -9.30992e-17 5.03777)
(5.92534 0 2.01567)
(-2.9848 0 -2.98394)
(-5.68091 -2.66795e-17 -4.09553)
(-1.82837 -5.26869e-17 -2.18591)
(1.93431 0 -0.186172)
(3.50144 0 0.538279)
(2.9829 -2.39489e-17 -0.0270078)
(0.975285 0 -1.28635)
(-1.23663 -7.29049e-19 -2.70781)
(-1.84559 -4.44509e-17 -2.8225)
(-0.786415 -6.63202e-17 -1.92993)
(0.89685 0 -0.994145)
(2.19854 -6.32567e-17 -0.457115)
(2.50686 -3.72464e-17 -0.427213)
(1.87778 3.80692e-17 -0.687967)
(0.875742 -3.13206e-17 -0.950071)
(0.0666129 0 -1.06361)
(-0.221766 7.86015e-17 -1.016)
(0.121104 -1.0286e-16 -0.846936)
(0.95201 0 -0.609513)
(1.97602 -3.4429e-19 -0.330107)
(2.85783 6.42153e-17 0.0200885)
(3.22752 0 0.423548)
(2.75806 3.55874e-17 0.446867)
(1.51256 0 -0.224583)
(-0.493326 0 -1.26948)
(-1.62644 -4.87079e-18 -1.12962)
(-1.55295 -2.48219e-18 -0.607146)
(-0.927071 1.56081e-16 -0.253863)
(0.0355762 -1.41272e-16 -0.0358207)
(0.932887 1.35126e-16 0.0434529)
(1.40749 0 0.0885281)
(1.37592 -2.41167e-16 0.249922)
(0.800696 -3.1416e-16 0.297215)
(-0.0687813 5.16376e-16 0.237765)
(-0.830053 -1.01469e-16 0.0665335)
(-1.53332 0 -0.686111)
(-1.0725 0 -0.211837)
(-0.230705 0 0.114636)
(0.391922 0 0.0401849)
(0.969573 0 0.349051)
(1.0481 1.65356e-16 0.620876)
(0.420372 -4.22647e-16 1.13236)
(-0.852134 0 1.96362)
(-2.61167 0 2.40848)
(-4.1795 -4.06118e-16 2.80937)
(-4.70351 2.00316e-18 2.83276)
(-3.69004 -2.72178e-16 2.7109)
(-2.24271 0 2.01743)
(0.569248 0 1.43547)
(3.23942 0 0.372363)
(5.48058 -1.93747e-18 -0.70189)
(7.23975 0 -2.18796)
(6.1622 0 -5.07252)
(6.21252 -6.30252e-16 -4.91065)
(6.18863 2.97972e-18 -5.92204)
(6.1263 0 -5.39898)
(4.40403 0 -4.81456)
(3.57622 5.78752e-16 -5.14555)
(5.07559 2.98124e-16 -5.59636)
(2.26885 -4.10485e-16 -4.90983)
(-2.78882 -1.62368e-15 -4.01458)
(-3.89883 1.02365e-17 -2.89305)
(0.55718 -4.56541e-17 2.35246)
(-15.6387 1.77161e-16 11.9817)
(-4.15322 0 5.66637)
(17.6696 0 -1.83651)
(-62.9068 0 39.2401)
(-64.2533 -1.03342e-14 34.3181)
(21.6845 -2.7811e-15 -13.2531)
(61.6734 1.27148e-15 -31.236)
(32.1595 -2.93442e-15 -16.0984)
(-6.39317 0 3.82614)
(15.3719 0 -9.44621)
(-7.5681 0 2.05323)
(-9.32433 -3.25662e-15 1.59912)
(9.72623 0 -9.62749)
(-4.0881 -5.97439e-15 1.33108)
(-1.49535 0 0.477478)
(7.15867 0 -2.49795)
(20.6446 6.43846e-16 -11.059)
(27.7926 0 -16.6671)
(31.5361 0 -19.4666)
(47.7183 0 -27.751)
(51.8357 -9.15862e-15 -30.4435)
(15.2536 0 -8.19449)
(-17.3455 6.08234e-15 9.16686)
(-14.7573 0 8.43807)
(-2.34629 2.62416e-18 1.46708)
(-0.114004 -1.72127e-18 -23.4029)
(-5.55769 -1.51424e-18 -8.85602)
(-4.61108 5.32408e-19 -3.58361)
(-6.59238 0 -2.52612)
(-8.13395 3.76618e-18 -1.41965)
(-9.63762 5.6714e-19 -1.16794)
(-10.9271 4.5843e-18 -1.66481)
(-10.102 -1.28256e-17 -1.95827)
(-5.59819 0 -0.788079)
(2.74712 0 3.48417)
(11.6529 0 9.12674)
(15.9105 0 12.4443)
(12.5691 0 10.9789)
(0.897181 0 4.01065)
(-12.18 1.04747e-17 -4.51211)
(-19.5373 0 -10.2032)
(-16.8061 3.81699e-17 -8.74879)
(-2.93345 0 -0.439096)
(15.5391 -7.10845e-17 11.1035)
(23.6725 2.23005e-17 19.2337)
(17.0509 0 18.345)
(30.53 -1.09473e-16 27.9705)
(15.915 1.98969e-16 7.08269)
(-23.1574 -2.36639e-16 -13.4332)
(75.0962 2.21232e-16 56.0629)
(1.54695 0 -92.4362)
(-109.203 1.04184e-16 -140.734)
(-104.189 0 -104.984)
(-40.4571 0 -37.1072)
(-1.23564 0 -2.49975)
(9.57918 3.88278e-17 8.25523)
(4.84361 0 2.89085)
(-4.91738 0 -4.52586)
(-6.30926 0 -5.91094)
(-1.49441 0 -3.36865)
(2.44053 0 -0.62329)
(3.729 0 0.423883)
(2.83752 2.46408e-17 -0.291015)
(0.589031 0 -1.88145)
(-1.51229 4.83173e-17 -3.53189)
(-1.76972 9.44274e-17 -3.67488)
(-0.457355 7.1952e-17 -2.59881)
(1.31052 0 -1.42603)
(2.6002 0 -0.741969)
(2.86172 7.43042e-17 -0.709622)
(2.21134 -3.88712e-17 -1.06398)
(1.22955 3.40003e-17 -1.43531)
(0.470108 0 -1.6224)
(0.25547 -8.42808e-17 -1.59408)
(0.693144 0 -1.3999)
(1.63604 0 -1.11264)
(2.77839 -9.84687e-17 -0.776275)
(3.76508 0 -0.372805)
(4.162 0 0.0747851)
(3.64105 -3.59556e-17 0.204925)
(2.10518 0 -0.710815)
(-0.428657 0 -2.65516)
(-1.13643 -7.56411e-18 -1.81899)
(-1.05533 1.11794e-16 -1.06726)
(-0.526791 7.08594e-19 -0.537369)
(0.305737 0 -0.165693)
(1.04481 -1.34908e-16 0.0106475)
(1.40249 6.72724e-17 0.157686)
(1.30181 0 0.358038)
(0.737414 6.25724e-16 0.357808)
(-0.0358001 -2.84417e-18 0.184631)
(-0.697061 0 -0.115226)
(-1.261 1.05619e-16 -1.02903)
(-0.690523 0 -0.444898)
(0.00144375 0 0.0631807)
(0.338864 0 0.149347)
(0.734866 0 0.745714)
(0.298764 -3.31754e-16 1.40203)
(-1.36631 4.26137e-16 2.62001)
(-4.5247 0 4.82414)
(-8.87055 0 6.69788)
(-12.8638 -3.91088e-16 8.10863)
(-14.401 2.75777e-18 8.55591)
(-12.7024 1.16685e-18 7.96615)
(-9.3674 0 5.88381)
(-2.75525 0 3.40857)
(4.5214 0 -0.34722)
(11.6795 -1.62495e-18 -4.24027)
(17.8836 6.62623e-16 -8.37402)
(18.6754 -6.09034e-16 -15.3213)
(21.6334 6.08953e-16 -14.3276)
(22.6942 4.68306e-18 -16.1807)
(22.3835 3.26454e-16 -15.0981)
(18.7987 0 -13.4806)
(19.2135 -5.56282e-16 -14.5661)
(24.7088 0 -16.9518)
(17.2031 3.93582e-16 -13.7716)
(2.53712 0 -7.8199)
(-5.17718 -6.52639e-15 -3.57148)
(-4.24424 -2.5102e-15 7.24934)
(-61.2134 0 38.8784)
(-24.2157 0 16.6325)
(29.044 5.50353e-15 -5.171)
(-204.384 -8.00123e-15 123.459)
(-191.357 9.79698e-15 106.485)
(70.4596 2.64128e-15 -45.3146)
(177.468 -1.20648e-15 -99.3171)
(95.0432 0 -50.5817)
(-13.4317 -2.98292e-15 8.84418)
(48.6193 0 -28.8833)
(-19.7184 0 9.37937)
(-11.935 3.03438e-15 2.73851)
(36.9616 0 -26.1641)
(-8.64581 -4.22286e-18 4.46977)
(1.27501 6.39476e-15 -1.22903)
(30.3244 0 -15.1502)
(72.255 0 -40.9662)
(92.1356 0 -54.1168)
(99.5899 1.62308e-15 -59.8067)
(138.761 -7.54881e-15 -82.0137)
(157.828 8.60993e-15 -91.5707)
(61.9929 0 -33.315)
(-36.2483 -5.71284e-15 22.2116)
(-42.8897 0 24.8005)
(-9.31072 3.42893e-15 5.16361)
(4.05095 3.09568e-18 -14.7811)
(-0.737558 -1.61359e-19 -7.53601)
(-2.92957 3.49002e-18 -3.05742)
(-5.0305 0 -2.2651)
(-7.29274 2.07135e-18 -1.89383)
(-9.43218 8.22642e-19 -1.43867)
(-10.4616 0 -0.845194)
(-8.82369 1.21733e-17 0.0590368)
(-3.74961 0 1.48905)
(3.4404 1.25673e-17 3.2863)
(9.64066 0 4.76616)
(11.1436 0 4.98871)
(6.53146 0 3.44847)
(-3.54597 0 0.494048)
(-12.8251 1.25338e-17 -1.90844)
(-15.8924 0 -2.67892)
(-10.4747 0 0.413201)
(2.34112 0 5.15557)
(16.7404 3.02768e-17 9.70677)
(20.1453 -1.00364e-17 12.528)
(13.0076 0 9.60208)
(18.6793 -3.97206e-17 11.1809)
(6.01883 0 0.563683)
(-8.57216 1.15632e-16 -0.220748)
(50.2359 0 43.6023)
(-57.5624 0 -140.328)
(-114.7 -9.88079e-17 -154.274)
(-82.6326 0 -95.9136)
(-22.3811 0 -28.949)
(4.06429 -7.61948e-17 -1.77191)
(8.8629 0 6.42102)
(2.88596 0 1.83238)
(-4.5543 0 -2.34528)
(-4.72554 0 -2.73744)
(-0.670361 4.93924e-17 -1.83907)
(2.27337 0 -0.638282)
(3.08485 0 -0.0641794)
(2.34303 -1.8987e-17 -0.288698)
(0.706608 0 -0.812282)
(-0.542042 -4.60196e-17 -1.12983)
(-0.658656 7.87733e-19 -1.22638)
(0.277316 -6.81207e-17 -0.971277)
(1.62958 0 -0.612505)
(2.67531 0 -0.404154)
(2.93392 -3.42871e-17 -0.445656)
(2.4374 0 -0.651831)
(1.6365 -3.21627e-17 -0.875803)
(1.00636 0 -1.03047)
(0.859561 -1.31158e-18 -1.0821)
(1.30943 0 -1.05608)
(2.22544 0 -0.994772)
(3.30281 0 -0.935402)
(4.15787 -5.88812e-17 -0.905915)
(4.3685 0 -0.916503)
(3.85298 0 -0.814075)
(2.63205 0 -1.04322)
(0.526211 0 -2.38309)
(-0.0446879 7.35289e-17 -1.40892)
(-0.315031 0 -1.01231)
(-0.0121034 4.54393e-19 -0.635154)
(0.645143 0 -0.301254)
(1.25682 6.3544e-17 -0.0895571)
(1.50686 -6.34278e-17 0.0771723)
(1.2663 0 0.0905546)
(0.710509 -5.8742e-16 -0.0673448)
(0.0835135 -2.38742e-16 -0.345722)
(-0.329079 0 -0.614127)
(-0.313545 -9.9467e-17 -0.829686)
(-0.0334465 0 -0.600007)
(0.248194 0 -0.165418)
(0.216457 0 0.337595)
(0.0110513 0 1.05675)
(-1.2363 -4.91156e-18 2.05708)
(-4.15667 -4.00747e-16 3.78633)
(-9.29104 0 6.85942)
(-15.6646 0 10.242)
(-21.3343 1.20181e-18 12.598)
(-23.3743 4.74728e-16 13.3942)
(-20.7344 1.23383e-16 12.0131)
(-15.2256 0 8.46629)
(-4.9892 0 3.78024)
(6.54474 0 -2.63991)
(18.2656 8.26073e-16 -9.29721)
(28.7383 -2.03846e-18 -15.5638)
(32.8571 5.71321e-16 -22.9707)
(37.35 0 -22.5319)
(39.2624 3.24845e-16 -23.911)
(37.6334 -3.0605e-16 -22.7377)
(31.7876 0 -19.9228)
(33.3515 0 -21.8218)
(43.0228 -2.75574e-16 -26.6763)
(31.413 0 -20.2278)
(6.42072 1.49191e-15 -7.18642)
(-8.90548 -1.68379e-17 -1.12384)
(-11.9229 2.2344e-15 12.7111)
(-109.803 -8.67258e-17 66.2952)
(-47.3319 0 27.0473)
(28.9815 -5.15047e-15 -1.57329)
(-295.711 7.48691e-15 181.364)
(-331.405 -9.14623e-15 178.707)
(105.196 0 -75.8939)
(283.065 -1.13974e-15 -160.937)
(158.349 0 -81.738)
(-13.0179 2.78924e-15 8.76376)
(77.4393 -5.5477e-15 -45.6061)
(-35.1258 0 20.1059)
(-11.2588 -2.83639e-15 0.679311)
(60.8135 0 -38.137)
(-12.085 1.05495e-14 7.3777)
(7.31823 -5.97568e-15 -5.38178)
(58.0195 0 -34.6585)
(126.643 0 -74.8426)
(154.806 0 -90.3379)
(159.838 6.42194e-18 -94.6238)
(212.203 7.05119e-15 -124.004)
(245.202 -8.05213e-15 -139.132)
(109.256 0 -58.881)
(-42.6793 -5.3107e-15 26.4801)
(-66.3926 0 37.4363)
(-17.283 -7.28749e-18 9.20891)
(5.66432 -1.38616e-18 -8.72115)
(1.25915 1.06631e-19 -5.24628)
(-1.13387 -1.4292e-18 -1.43548)
(-2.90918 2.13911e-18 -1.28572)
(-5.55434 4.45253e-19 -1.89592)
(-8.1676 -3.33132e-18 -1.61782)
(-9.17101 0 -0.504864)
(-7.33637 0 1.09066)
(-2.53544 0 2.68979)
(3.55997 -1.19039e-17 3.63324)
(8.06884 0 3.44829)
(7.96297 0 1.95885)
(2.77889 0 -0.118435)
(-6.1962 0 -1.90843)
(-12.9503 0 -1.35627)
(-13.3781 -2.04178e-17 0.793654)
(-6.83069 3.58885e-17 5.03574)
(4.4453 0 8.08935)
(15.5466 0 8.2652)
(15.4242 -1.05424e-17 6.94219)
(6.26549 -3.67004e-17 2.60091)
(7.43088 1.35995e-16 -5.5606)
(3.61241 -1.95926e-16 -6.97779)
(1.42184 -1.09503e-16 7.81107)
(8.26948 -1.15091e-16 14.2019)
(-70.4302 9.73536e-17 -113.952)
(-86.133 0 -121.35)
(-49.7279 -8.01777e-17 -68.9471)
(-3.50241 0 -15.2427)
(9.59228 7.21157e-17 1.36337)
(9.14856 0 6.58304)
(1.8486 0 1.93573)
(-4.52978 0 -1.29196)
(-4.07628 -3.59964e-17 -1.35611)
(-0.216868 -4.67233e-17 -0.967675)
(2.45301 0 -0.205965)
(3.08138 0 0.261525)
(2.30211 1.79545e-17 0.125887)
(0.776927 0 -0.218267)
(-0.338952 8.74856e-19 -0.392423)
(-0.406101 -4.44362e-17 -0.524581)
(0.514611 0 -0.437247)
(1.80894 0 -0.2755)
(2.80117 0 -0.227132)
(3.05026 0 -0.362401)
(2.5966 -3.32546e-17 -0.607801)
(1.87797 0 -0.838741)
(1.34189 5.08362e-17 -1.00011)
(1.28736 7.64809e-17 -1.06759)
(1.81331 0 -1.07802)
(2.78347 0 -1.08043)
(3.88601 0 -1.11645)
(4.73207 5.55518e-17 -1.22128)
(4.91296 -1.57817e-17 -1.39006)
(4.33982 3.2672e-17 -1.46729)
(3.21594 0 -1.47047)
(1.57732 2.30323e-17 -2.01408)
(0.695732 -7.57297e-17 -1.59877)
(0.308285 0 -1.24771)
(0.540389 -2.80895e-16 -0.811101)
(1.10711 0 -0.421761)
(1.61997 -5.95047e-17 -0.1812)
(1.7573 5.93446e-17 -0.0655332)
(1.45776 0 -0.160898)
(0.951582 2.75569e-16 -0.447936)
(0.477015 2.17757e-16 -0.844104)
(0.274936 0 -1.16029)
(0.511663 0 -1.24667)
(0.690385 0 -0.916445)
(0.596648 2.56936e-16 -0.273757)
(-0.032852 1.91856e-16 0.649852)
(-1.00257 0 1.74488)
(-3.20292 1.53936e-16 3.29166)
(-7.33481 3.84719e-16 5.74183)
(-14.1872 0 9.63948)
(-22.2507 0 14.0675)
(-28.9736 3.43948e-16 17.1074)
(-31.2168 -2.07967e-18 17.7727)
(-27.3392 0 15.3954)
(-19.5225 0 10.1125)
(-5.65331 0 3.34907)
(9.88691 0 -5.5004)
(25.8516 -2.15346e-18 -14.4704)
(39.9667 -5.81025e-16 -22.9207)
(47.6341 0 -29.1409)
(51.9584 0 -30.9963)
(53.9622 0 -31.8981)
(50.6665 -2.86526e-16 -30.0989)
(42.418 0 -25.8588)
(45.101 -4.99486e-16 -28.7629)
(59.1535 2.58061e-16 -35.8012)
(42.9627 3.39073e-16 -25.556)
(5.89641 -1.39665e-15 -5.54928)
(-14.8091 5.78282e-15 4.6473)
(-21.6731 -2.09111e-15 19.7694)
(-158.899 8.11522e-17 95.2114)
(-72.6634 0 38.6139)
(17.6044 0 8.32229)
(-292.985 6.99815e-15 188.943)
(-515.882 4.27475e-15 276.663)
(113.07 -2.41663e-15 -96.4441)
(375.654 -2.73656e-17 -216.646)
(222.62 0 -112.025)
(-5.02537 0 5.88827)
(101.539 5.18545e-15 -59.0911)
(-53.3205 0 32.4991)
(-8.97672 2.61594e-15 -2.65987)
(79.4723 0 -48.4849)
(-13.9703 2.6149e-18 9.63221)
(16.1261 0 -11.8996)
(91.458 -2.85196e-15 -56.567)
(183.054 4.90113e-16 -109.632)
(212.718 -3.20622e-16 -124.06)
(209.534 3.07227e-18 -124.573)
(266.396 0 -157.44)
(309.203 7.51972e-15 -174.881)
(153.328 8.18661e-15 -76.7492)
(-39.7376 4.95894e-15 28.551)
(-84.2052 0 47.6241)
(-25.5847 -1.0113e-17 13.1461)
(5.92127 0 -5.35442)
(2.48933 3.75775e-20 -3.20626)
(0.983884 0 -0.171716)
(-0.207544 -2.02102e-18 -0.348939)
(-2.80914 -2.27234e-18 -1.38801)
(-5.55204 1.93051e-18 -1.30572)
(-6.77047 0 -0.222486)
(-5.37965 0 1.33022)
(-1.4523 -1.23245e-17 2.73183)
(3.43031 -9.80106e-18 3.30141)
(6.68683 3.28269e-18 2.63749)
(5.81576 -9.86762e-18 0.779099)
(0.751363 -2.094e-17 -1.20613)
(-6.99527 0 -2.37069)
(-12.0795 0 -0.765167)
(-11.2316 3.68957e-17 2.3832)
(-4.83779 -4.53998e-18 6.62912)
(4.62949 0 8.69833)
(13.8041 -1.66327e-17 7.22596)
(12.39 -1.42064e-18 4.67235)
(2.74264 3.46983e-17 1.72989)
(4.61555 0 -5.75518)
(2.38428 1.85212e-16 -12.7607)
(-3.65613 -7.0733e-17 -2.76283)
(-19.4872 1.08771e-16 -9.38842)
(-56.0991 5.08502e-18 -62.4279)
(-44.4144 0 -54.1281)
(-16.7384 -8.62699e-18 -34.2934)
(16.2295 0 4.16351)
(14.2569 1.1053e-17 6.02181)
(9.15018 0 6.93079)
(0.727938 0 1.84506)
(-4.77001 0 -0.944772)
(-3.73967 3.39987e-17 -0.693267)
(0.133404 0 -0.378689)
(2.7251 0 0.226664)
(3.25145 0 0.666422)
(2.41368 0 0.552839)
(0.926388 -7.87612e-18 0.245873)
(-0.128544 3.78939e-17 0.090062)
(-0.135024 0 -0.0422061)
(0.813837 6.06081e-17 -0.026411)
(2.09231 0 0.0218043)
(3.05124 0 -0.0514501)
(3.2872 0 -0.28706)
(2.8616 3.62199e-19 -0.597981)
(2.21118 0 -0.855917)
(1.75987 -4.79332e-17 -1.02871)
(1.79182 0 -1.10484)
(2.38968 0 -1.13661)
(3.4107 -9.6442e-17 -1.1823)
(4.5378 0 -1.28686)
(5.38227 0 -1.48527)
(5.54516 -2.91553e-19 -1.76934)
(4.93925 -3.07732e-17 -1.97295)
(3.77027 0 -2.05549)
(2.3704 -3.3278e-18 -2.18024)
(1.3968 7.61625e-17 -1.90308)
(0.986009 0 -1.48707)
(1.16781 1.32298e-16 -0.992367)
(1.65691 0 -0.569246)
(2.08243 5.59791e-17 -0.330744)
(2.14057 -5.58185e-17 -0.263423)
(1.81345 0 -0.458523)
(1.36545 -2.52298e-16 -0.882464)
(1.03936 -4.79793e-18 -1.40723)
(1.02652 0 -1.79656)
(1.40381 0 -1.84833)
(1.48147 0 -1.32162)
(0.979515 -4.81146e-16 -0.33015)
(-0.395484 -2.65667e-18 1.12003)
(-2.31468 0 2.75116)
(-5.61659 -1.55443e-16 4.95722)
(-10.9522 -7.26478e-16 8.14743)
(-19.194 0 12.8096)
(-28.4932 0 17.9476)
(-35.8407 0 21.1456)
(-37.937 -2.88075e-18 21.3591)
(-32.6097 0 17.7916)
(-22.3248 0 10.8151)
(-5.11421 0 1.88258)
(14.0641 0 -9.22322)
(33.7961 -3.60439e-16 -20.1286)
(51.1328 -5.36601e-16 -30.2934)
(61.246 0 -36.0849)
(65.4172 0 -39.0133)
(67.0352 0 -39.164)
(61.9987 1.52561e-19 -36.0137)
(51.1783 0 -30.5679)
(55.0591 4.67589e-16 -34.7156)
(73.195 0 -43.6026)
(51.264 -3.1733e-16 -28.4961)
(1.50793 0 -1.06186)
(-25.0486 -2.71204e-15 9.14984)
(-32.4335 0 29.5465)
(-206.627 0 124.12)
(-100.19 0 50.2121)
(-1.81243 0 21.9974)
(-168.672 -6.5438e-15 131.379)
(-783.565 0 421.735)
(81.1297 2.25914e-15 -99.6281)
(452.859 1.02168e-15 -263.909)
(288.878 0 -140.992)
(9.44295 0 -0.124457)
(120.721 0 -69.7357)
(-72.6753 0 46.2843)
(-7.34988 -1.92334e-17 -6.99688)
(93.7981 0 -56.2855)
(-13.9971 -9.21817e-15 10.9032)
(27.9977 0 -20.322)
(128.721 5.32029e-15 -82.2394)
(239.231 -4.57751e-16 -144.772)
(263.328 2.99433e-16 -153.236)
(248.361 -1.33092e-15 -147.337)
(304.839 0 -180.468)
(351.781 0 -196.35)
(187.595 -1.52665e-14 -90.3349)
(-33.0205 4.59494e-15 28.5093)
(-96.3716 2.71026e-15 54.344)
(-33.3176 -1.37729e-15 16.6226)
(6.02347 0 -2.88993)
(3.86193 -8.2385e-20 -1.47902)
(3.13293 0 0.608516)
(2.11264 0 0.303331)
(-0.194699 0 -0.622028)
(-2.67355 0 -0.665853)
(-3.94078 0 0.094965)
(-3.04855 9.97241e-18 1.24585)
(-0.0861865 1.1629e-17 2.27721)
(3.62104 1.81241e-17 2.64592)
(5.87107 -6.37467e-18 2.018)
(4.65048 9.31346e-18 0.479204)
(0.0102334 1.97652e-17 -0.991308)
(-6.51244 0 -1.57201)
(-10.4513 0 0.279773)
(-9.19407 -3.08849e-17 3.39174)
(-3.77382 -5.11369e-17 6.8465)
(3.69386 0 7.96621)
(11.4091 1.57003e-17 5.69937)
(9.65153 1.34047e-18 2.48478)
(0.539733 0 1.46106)
(2.66835 -6.13488e-17 -2.76993)
(-0.427069 0 -14.6608)
(-11.2991 1.62995e-17 -15.7767)
(-29.7995 -3.42361e-17 -15.9925)
(-41.6296 3.74079e-18 -37.223)
(-11.4626 0 -6.69771)
(5.86282 7.96325e-17 -2.67264)
(24.0812 -5.39868e-17 12.0154)
(17.783 2.83741e-17 14.6845)
(8.01089 7.60553e-17 6.8277)
(-0.820536 0 1.17585)
(-5.2068 6.29733e-18 -1.10539)
(-3.54466 0 -0.428265)
(0.40766 0 -0.00153717)
(2.97754 0 0.537347)
(3.43322 0 0.976612)
(2.53518 0 0.874852)
(1.0704 1.90369e-18 0.568997)
(0.0653018 -1.73184e-17 0.404835)
(0.109533 0 0.258382)
(1.09503 -1.1339e-16 0.228347)
(2.37019 0 0.196075)
(3.30591 0 0.0265085)
(3.53357 0 -0.298422)
(3.13708 2.92018e-17 -0.675093)
(2.55279 0 -0.964129)
(2.18246 0 -1.14952)
(2.29623 0 -1.23076)
(2.96131 0 -1.27432)
(4.02933 1.80691e-16 -1.34811)
(5.17987 0 -1.49996)
(6.02636 0 -1.76345)
(6.18144 1.42629e-17 -2.1268)
(5.55417 0 -2.4299)
(4.37239 0 -2.56683)
(3.06475 -3.16813e-17 -2.53991)
(2.09817 -3.6878e-17 -2.23088)
(1.69404 0 -1.73036)
(1.83866 0 -1.18515)
(2.26399 0 -0.742125)
(2.61686 -5.12932e-17 -0.52354)
(2.61551 0 -0.513711)
(2.2752 0 -0.810981)
(1.88789 4.692e-16 -1.37005)
(1.70469 -3.69898e-16 -2.01739)
(1.86796 0 -2.47529)
(2.36325 0 -2.49516)
(2.33233 0 -1.72527)
(1.38129 2.25058e-16 -0.305618)
(-0.865317 -1.66602e-16 1.7474)
(-3.89158 -8.03184e-17 4.04337)
(-8.40812 1.45823e-16 6.99093)
(-14.8981 3.42685e-16 10.8915)
(-24.191 -4.20979e-16 16.1608)
(-34.2229 0 21.711)
(-41.7355 0 24.712)
(-43.3859 -1.90761e-16 24.1834)
(-36.4864 0 19.2699)
(-23.7814 0 10.5575)
(-3.53758 0 -0.407515)
(18.8471 0 -13.5021)
(41.7785 0 -25.9634)
(61.7883 9.98826e-16 -37.4329)
(73.4034 0 -43.4297)
(77.5195 4.48389e-16 -46.3217)
(78.3724 0 -45.4451)
(71.3405 2.38758e-19 -40.8173)
(58.0845 -5.56938e-16 -34.2709)
(63.2928 0 -39.9363)
(84.824 0 -49.9332)
(55.2551 0 -28.4452)
(-7.57525 0 6.19415)
(-35.6216 2.56701e-15 17.5486)
(-42.8873 0 41.0267)
(-250.392 0 151.155)
(-128.139 0 61.6451)
(-25.4816 0 33.5604)
(59.0775 0 22.5662)
(-1142.26 0 624.658)
(-4.68285 0 -89.0898)
(509.301 0 -303.182)
(356.361 2.14189e-15 -169.018)
(29.983 0 -8.23734)
(136.112 0 -75.9233)
(-91.3743 0 60.1686)
(-7.75939 -2.26521e-15 -10.8179)
(103.847 0 -62.1341)
(-11.5729 4.30639e-15 10.9073)
(42.2109 0 -32.6378)
(169.23 -6.53575e-18 -110.397)
(293.518 0 -178.661)
(303.814 -2.82299e-16 -176.721)
(275.101 0 -163.666)
(329.373 0 -196.836)
(375.358 0 -208.337)
(213.162 7.11657e-15 -96.7429)
(-25.0521 -8.55567e-15 28.8624)
(-102.409 -5.03678e-15 58.1683)
(-39.9082 -1.25636e-15 19.3069)
(6.5175 0 -0.935767)
(5.21562 2.80717e-19 -0.121627)
(4.55905 0 0.965137)
(3.48955 0 0.723507)
(1.54497 1.35121e-19 0.162092)
(-0.453099 -2.75802e-18 0.0872514)
(-1.42568 6.30516e-18 0.5101)
(-0.68535 -2.78845e-17 1.20817)
(1.61786 0 1.8356)
(4.41415 -2.13183e-19 2.04174)
(5.89995 3.08752e-18 1.6045)
(4.50801 0 0.603911)
(0.306086 0 -0.236812)
(-5.23828 0 -0.297792)
(-8.51413 0 1.45085)
(-7.44505 2.49448e-18 4.0329)
(-3.36878 3.85582e-18 6.43697)
(2.16044 1.75508e-17 6.73211)
(8.63522 1.03305e-17 4.0638)
(7.15852 0 0.332046)
(-1.06224 2.419e-17 0.404994)
(0.267497 5.7824e-17 -0.583347)
(-3.5212 0 -12.7496)
(-14.2641 2.42442e-17 -19.6169)
(-31.103 5.27864e-18 -15.5896)
(-28.0146 -8.98988e-17 -18.3666)
(-0.450785 0 1.76418)
(15.6289 0 11.9867)
(24.2884 5.08665e-17 8.72527)
(17.5933 4.37414e-17 14.7456)
(4.07047 -1.56374e-16 5.494)
(-2.96975 0 -0.40403)
(-5.72039 -9.93663e-18 -1.63366)
(-3.35265 0 -0.355988)
(0.6755 0 0.29101)
(3.22102 -2.42218e-17 0.775855)
(3.616 0 1.21005)
(2.6595 -8.48068e-18 1.12212)
(1.21664 1.89787e-18 0.81278)
(0.258914 1.39866e-17 0.631472)
(0.346972 0 0.460773)
(1.36677 9.93645e-19 0.390203)
(2.63753 0 0.288582)
(3.55105 0 0.0344373)
(3.77367 0 -0.36994)
(3.41124 0 -0.805192)
(2.89546 0 -1.12165)
(2.6047 4.30306e-17 -1.31668)
(2.79514 0 -1.40028)
(3.51966 0 -1.45131)
(4.62598 -8.45401e-17 -1.54671)
(5.79264 0 -1.73639)
(6.63733 -4.49955e-17 -2.05133)
(6.78701 -1.35914e-17 -2.47335)
(6.15324 -2.20772e-17 -2.84817)
(4.98397 0 -3.01421)
(3.72805 1.3544e-17 -2.92602)
(2.80336 -3.82116e-17 -2.54159)
(2.41177 0 -1.96813)
(2.52815 0 -1.3819)
(2.90163 0 -0.927161)
(3.19364 4.81613e-17 -0.738148)
(3.14122 0 -0.797863)
(2.78988 0 -1.20115)
(2.45446 -2.17936e-16 -1.89284)
(2.40024 3.3544e-16 -2.6532)
(2.72593 0 -3.16552)
(3.33692 0 -3.13238)
(3.21277 0 -2.07499)
(1.78442 0 -0.1919)
(-1.41446 -1.48313e-16 2.5325)
(-5.67087 7.53064e-17 5.58509)
(-11.473 0 9.32503)
(-19.0194 0 13.8759)
(-29.0147 3.94543e-16 19.5465)
(-39.3173 0 25.1511)
(-46.5792 2.73659e-16 27.6634)
(-47.5393 -1.70512e-16 26.1656)
(-39.0334 0 19.8153)
(-24.0748 0 9.39983)
(-1.21437 0 -3.41176)
(23.8363 0 -18.2178)
(49.3342 0 -31.8551)
(71.4389 -4.6456e-16 -44.3023)
(84.2384 0 -50.2067)
(88.0301 -8.32498e-16 -52.8027)
(87.9319 0 -50.5322)
(78.7859 3.30025e-19 -44.3335)
(63.3187 -5.89157e-18 -36.9678)
(69.9798 0 -44.4357)
(93.7013 -2.53515e-16 -54.5306)
(54.0803 0 -24.6872)
(-20.4473 0 16.293)
(-45.2757 -4.80201e-15 29.2593)
(-52.214 0 52.6909)
(-286.643 0 174.619)
(-154.982 0 71.0186)
(-51.6435 0 37.9928)
(307.094 0 -87.0163)
(-1529.7 0 852.274)
(-135.002 0 -50.406)
(541.643 0 -332.324)
(423.534 -2.00102e-15 -195.465)
(56.1301 0 -18.0055)
(146.132 0 -81.1381)
(-107.235 0 72.938)
(-11.6075 2.07332e-15 -13.7136)
(110.315 -4.43777e-15 -65.642)
(-6.64554 -4.03016e-15 9.35191)
(61.4073 4.51498e-15 -45.042)
(211.92 -6.61529e-18 -140.87)
(343.44 -3.87437e-16 -210.151)
(332.312 5.29707e-16 -192.111)
(290.978 0 -172.862)
(344.517 5.35215e-15 -207.033)
(387.058 6.08181e-15 -213.032)
(231.652 0 -97.6113)
(-18.2898 3.98225e-15 29.4032)
(-102.998 2.33987e-15 58.892)
(-45.1334 1.17271e-15 21.2003)
(7.01606 0 0.281195)
(6.02488 -1.86144e-19 0.630475)
(5.27277 0 1.1058)
(4.11711 0 1.0152)
(2.39675 -1.2725e-19 0.78109)
(0.880687 2.59642e-18 0.755542)
(0.403213 -5.93466e-18 0.987638)
(1.34828 2.59843e-17 1.38402)
(3.44033 0 1.70674)
(5.7441 7.30005e-18 1.75325)
(6.76774 -6.44563e-18 1.4454)
(5.30801 0 0.887881)
(1.43674 -1.09947e-17 0.546877)
(-3.47939 0 0.843933)
(-6.52784 -2.3714e-18 2.34786)
(-6.019 1.03221e-17 4.28291)
(-3.34052 1.71227e-17 5.75133)
(0.503232 -1.6521e-17 5.51841)
(5.90364 -1.78942e-17 2.81067)
(5.00963 0 -1.20226)
(-2.03941 -2.27708e-17 -1.05787)
(-1.87877 0 0.434233)
(-5.93044 0 -8.90147)
(-13.1176 2.19272e-17 -16.0669)
(-26.6994 5.44682e-17 -11.1683)
(-15.1972 0 -1.98665)
(7.32426 0 6.82076)
(20.5212 0 19.0092)
(23.901 2.8443e-17 10.7821)
(12.6252 -7.55626e-17 7.75953)
(1.3334 -6.76024e-18 3.91475)
(-4.9587 -4.40017e-17 -1.92729)
(-6.55167 4.39797e-18 -3.29109)
(-3.13538 2.49011e-17 -0.533522)
(0.96024 -3.08504e-17 0.51009)
(3.46929 3.34503e-19 0.97829)
(3.80098 0 1.38118)
(2.78663 7.97616e-18 1.30749)
(1.36495 3.10341e-18 0.995505)
(0.452746 -1.31525e-17 0.794182)
(0.57811 0 0.591583)
(1.62676 4.8865e-17 0.480751)
(2.88864 4.88296e-17 0.317083)
(3.77823 3.70216e-17 -0.0124548)
(3.99797 2.1833e-17 -0.48676)
(3.67514 0 -0.971011)
(3.23063 0 -1.30895)
(3.01776 1.38387e-19 -1.50939)
(3.27845 0 -1.5929)
(4.05264 0 -1.64894)
(5.18602 -7.68152e-17 -1.76258)
(6.35863 6.52476e-17 -1.98516)
(7.1947 4.22588e-17 -2.34435)
(7.33965 3.92523e-20 -2.81065)
(6.71438 1.84999e-18 -3.22916)
(5.57161 0 -3.41456)
(4.37031 0 -3.2815)
(3.49446 7.3157e-17 -2.82714)
(3.11789 0 -2.19196)
(3.21308 0 -1.56976)
(3.54143 -9.24156e-17 -1.10853)
(3.77807 0 -0.954075)
(3.67457 0 -1.09154)
(3.30451 -1.53919e-16 -1.60206)
(3.00318 1.92711e-16 -2.42111)
(3.05734 -3.01292e-16 -3.28194)
(3.53031 0 -3.8315)
(4.26721 -9.01238e-17 -3.7215)
(4.06031 0 -2.38367)
(2.18265 0 0.0211585)
(-1.99802 2.7244e-16 3.46785)
(-7.56408 0 7.33801)
(-14.6838 0 11.8883)
(-23.1618 0 16.9894)
(-33.5116 0 22.8227)
(-43.614 0 28.215)
(-50.308 -2.56264e-16 29.9637)
(-50.4214 5.63433e-18 27.3118)
(-40.3748 6.77525e-17 19.492)
(-23.4425 -6.53537e-17 7.46138)
(1.54985 0 -6.94221)
(28.6882 0 -23.1134)
(56.1317 0 -37.5172)
(79.9482 0 -50.3482)
(93.4821 0 -56.2528)
(96.9334 7.92491e-18 -58.1686)
(95.5822 0 -54.5681)
(84.3671 2.19104e-16 -46.6226)
(67.0299 -6.72888e-18 -38.774)
(75.2358 0 -48.273)
(99.4925 2.37032e-16 -57.0446)
(47.0841 0 -16.7487)
(-36.9445 1.04113e-15 28.6005)
(-56.8307 6.96184e-18 35.7994)
(-57.7198 0 63.4895)
(-311.795 0 192.156)
(-177.591 0 78.5161)
(-79.5885 0 36.8837)
(455.621 -5.25999e-15 -128.413)
(-1789.41 0 1019.1)
(-323.277 0 -33.8608)
(544.945 1.02844e-15 -353.122)
(487.959 0 -219.738)
(86.9837 1.93765e-15 -28.7844)
(155.248 -3.94591e-15 -78.4352)
(-117.232 0 83.1252)
(-19.5932 -3.84788e-15 -14.9677)
(113.476 -2.90479e-17 -67.1204)
(1.46469 7.53234e-15 5.83373)
(81.1277 -4.21569e-15 -66.0163)
(255.397 -2.15101e-15 -172.685)
(386.658 3.6172e-16 -237.578)
(346.645 -2.48455e-16 -198.801)
(297.374 1.07146e-15 -176.921)
(353.215 -4.99635e-15 -214.359)
(393.089 -5.67732e-15 -214.208)
(244.663 -6.10107e-15 -95.8155)
(-12.237 -3.66154e-15 31.5936)
(-99.0668 0 57.4929)
(-49.3622 0 22.5696)
(7.3229 0 0.885238)
(6.47591 -2.5401e-19 1.02699)
(5.64149 0 1.22378)
(4.32731 0 1.20488)
(2.71855 0 1.17089)
(1.58793 0 1.2351)
(1.56551 5.67982e-18 1.43004)
(2.8389 -8.07136e-18 1.72028)
(5.01658 8.48593e-18 1.8901)
(7.19555 -1.40718e-17 1.79617)
(8.08261 6.05912e-18 1.49267)
(6.71641 0 1.16244)
(3.15092 1.03355e-17 1.10246)
(-1.38377 0 1.5728)
(-4.49673 2.2294e-18 2.80318)
(-4.72953 -4.9531e-18 4.1762)
(-3.33504 0 4.98143)
(-0.884931 0 4.53864)
(3.52818 7.68134e-18 2.08443)
(3.28449 0 -1.90778)
(-2.32188 0 -2.14282)
(-3.31023 7.41431e-18 0.482541)
(-7.1299 0 -4.84532)
(-9.82234 0 -9.26073)
(-19.4564 -2.73279e-17 -5.29163)
(-4.65347 0 10.0665)
(13.0963 0 11.4989)
(22.2207 0 21.2801)
(21.6647 -8.71189e-17 12.1414)
(9.56678 0 5.47598)
(-1.24299 -1.77267e-18 2.3995)
(-6.48837 3.81547e-18 -1.99082)
(-6.63545 -5.9212e-19 -3.7598)
(-3.27601 -2.34025e-17 -2.18881)
(1.29446 5.72351e-17 0.618593)
(3.72957 2.10961e-17 1.15196)
(3.98149 0 1.49501)
(2.9124 0 1.43427)
(1.51098 -6.34258e-19 1.12455)
(0.642255 -1.02846e-17 0.905513)
(0.79739 0 0.664588)
(1.86837 0 0.512103)
(3.11652 -1.54121e-18 0.294471)
(3.97975 -3.4769e-17 -0.100346)
(4.19808 -2.05029e-17 -0.634802)
(3.9206 -2.45097e-17 -1.15662)
(3.54966 0 -1.50898)
(3.41211 1.8154e-19 -1.70998)
(3.73531 0 -1.79113)
(4.54798 0 -1.85042)
(5.6959 7.20973e-17 -1.98004)
(6.86333 -6.12343e-17 -2.23189)
(7.68364 0 -2.62971)
(7.82398 1.19392e-17 -3.1297)
(7.21827 1.86852e-18 -3.57171)
(6.11775 0 -3.76133)
(4.97943 0 -3.58643)
(4.15147 -7.11147e-17 -3.07768)
(3.79163 0 -2.38851)
(3.86877 0 -1.73311)
(4.1526 1.70982e-16 -1.2684)
(4.33205 0 -1.1503)
(4.17039 0 -1.36829)
(3.76663 2.84099e-16 -1.98287)
(3.47536 -1.80615e-16 -2.92089)
(3.6128 1.37781e-16 -3.86798)
(4.21664 0 -4.43918)
(5.09157 8.44387e-17 -4.23517)
(4.93269 0 -2.47231)
(2.59121 -1.72638e-16 0.338659)
(-2.55477 -1.24991e-16 4.53404)
(-9.46181 0 9.25562)
(-17.8879 0 14.6231)
(-27.186 -3.01046e-16 20.1041)
(-37.5395 -3.49643e-16 25.894)
(-47.1036 0 30.7237)
(-52.9487 0 31.592)
(-52.1464 2.81663e-16 27.6674)
(-40.7144 -6.34025e-17 18.4162)
(-22.18 1.14948e-16 4.90299)
(4.41056 0 -10.8007)
(33.0319 0 -27.9911)
(61.8314 0 -42.8004)
(86.596 0 -56.2518)
(101.133 0 -61.2351)
(104.182 9.20309e-18 -62.4317)
(101.375 0 -57.5605)
(88.2121 0 -47.7286)
(69.3868 -7.62027e-18 -39.7923)
(79.1644 0 -51.4692)
(101.899 2.60119e-16 -57.1073)
(34.1157 0 -4.43714)
(-55.3061 -9.73009e-16 42.3093)
(-64.6336 1.12987e-17 43.3045)
(-58.0475 0 71.7668)
(-321.877 0 202.275)
(-195.414 0 80.7999)
(-108.907 0 32.5944)
(422.23 6.01755e-17 -60.1843)
(-1723.59 -3.09744e-15 1007.73)
(-518.301 -1.79357e-15 27.5835)
(521.351 -9.60546e-16 -365.102)
(546.949 0 -241.12)
(122.52 -1.80952e-15 -39.8951)
(155.789 3.68482e-15 -82.5559)
(-119.312 0 89.2432)
(-31.8874 1.78503e-15 -14.4205)
(113.823 7.80293e-15 -66.7525)
(12.2943 -3.51907e-15 0.251605)
(105.136 0 -88.9872)
(298.703 1.99072e-15 -205.573)
(421.156 0 -258.714)
(346.317 0 -195.891)
(297.578 -1.00018e-15 -177.11)
(358.56 0 -219.655)
(399.89 0 -214.606)
(255.642 5.69469e-15 -92.2724)
(-5.63719 3.41754e-15 36.1836)
(-92.3749 1.94923e-15 54.7029)
(-53.3833 -9.50611e-16 23.9605)
(7.52968 0 1.22379)
(6.74012 2.38742e-19 1.27818)
(5.79226 1.06619e-18 1.31579)
(4.38324 0 1.31218)
(2.89424 0 1.3883)
(2.0169 0 1.53054)
(2.2733 -5.33712e-18 1.76488)
(3.78193 0 2.06841)
(6.0948 -7.97191e-18 2.19797)
(8.3178 0 2.00409)
(9.2918 0 1.62353)
(8.20551 -2.50915e-18 1.33473)
(5.06436 0 1.36837)
(0.892765 -8.92761e-18 1.87208)
(-2.34243 4.27378e-18 2.85909)
(-3.31045 4.65164e-18 3.82248)
(-3.00614 0 4.23303)
(-1.70142 -8.23368e-18 3.80951)
(1.73814 0 1.79381)
(2.03029 -2.21779e-20 -1.89443)