/*--------------------------------*- C++ -*----------------------------------*\
| =========                 |                                                 |
| \\      /  F ield         | OpenFOAM: The Open Source CFD Toolbox           |
|  \\    /   O peration     | Version:  2412                                  |
|   \\  /    A nd           | Website:  www.openfoam.com                      |
|    \\/     M anipulation  |                                                 |
\*---------------------------------------------------------------------------*/
FoamFile
{
    version     2.0;
    format      ascii;
    arch        "LSB;label=32;scalar=64";
    class       volScalarField;
    location    "1.17";
    object      p;
}
// * * * * * * * * * * * * * * * * * * * * * * * * * * * * * * * * * * * * * //

dimensions      [0 2 -2 0 0 0 0];

internalField   nonuniform List<scalar> 
12600
(
-0.937529
-83.7131
-61.059
-8.82982
35.7806
69.8825
96.9723
119.438
138.599
155.221
169.784
182.694
194.215
204.533
213.806
222.106
229.627
236.412
242.609
248.282
253.442
258.077
262.413
266.296
269.542
273.333
276.365
278.68
280.757
282.814
284.742
286.539
288.144
289.573
290.885
292.096
293.209
294.225
295.146
295.975
296.717
297.389
298
298.557
299.064
299.516
299.909
300.245
300.526
300.762
300.967
301.15
301.322
301.488
301.645
301.796
301.951
302.1
302.262
302.441
302.619
302.745
302.735
302.472
301.849
300.811
299.43
297.903
296.543
295.684
295.519
296.15
297.413
299.376
301.682
304.408
307.009
309.423
311.054
311.741
311.059
308.64
304.359
298.155
290.408
282.015
273.242
263.877
254.736
247.456
243.141
245.413
254.496
274.35
296.105
322.97
365.502
400.589
466.33
471.227
387.805
375.786
303.671
337.288
314.127
299.959
322.324
268.469
269.736
256.565
230.366
174.474
114.018
60.0881
20.1522
-45.8461
-134.931
-153.098
-119.113
-127.462
60.633
-16.4169
-25.6775
0.740172
34.4208
65.8038
92.6138
115.345
134.867
151.867
166.847
180.122
191.951
202.503
212.077
220.562
228.255
235.216
241.576
247.388
252.658
257.41
261.804
265.709
269.115
272.848
275.822
278.177
280.368
282.511
284.487
286.306
287.925
289.373
290.711
291.945
293.075
294.105
295.037
295.875
296.629
297.312
297.933
298.5
299.014
299.473
299.871
300.212
300.497
300.739
300.948
301.136
301.312
301.479
301.638
301.788
301.938
302.084
302.245
302.423
302.602
302.73
302.725
302.471
301.863
300.843
299.478
297.959
296.597
295.721
295.533
296.142
297.378
299.312
301.595
304.307
306.905
309.338
311.004
311.731
311.098
308.742
304.525
298.372
290.649
282.286
273.53
264.176
255.011
247.659
243.201
245.294
254.125
273.772
295.473
322.143
364.584
399.329
465.127
471.775
389.089
376.93
304.26
337.212
314.552
299.813
322.572
269.066
269.85
256.965
231.301
175.808
115.311
61.1246
21.227
-44.3141
-133.801
-153.201
-119.394
-127.403
87.6191
30.7665
6.26894
14.8107
39.2347
66.4939
91.6431
113.811
133.213
150.25
165.298
178.671
190.611
201.292
210.886
219.487
227.314
234.364
240.81
246.702
252.033
256.855
261.297
265.258
268.851
272.395
275.298
277.757
280.087
282.301
284.315
286.15
287.782
289.246
290.599
291.847
292.989
294.029
294.97
295.815
296.575
297.264
297.891
298.463
298.982
299.444
299.846
300.19
300.479
300.723
300.935
301.126
301.304
301.473
301.633
301.782
301.929
302.075
302.235
302.411
302.589
302.718
302.717
302.472
301.873
300.864
299.507
297.991
296.626
295.745
295.544
296.135
297.354
299.274
301.546
304.25
306.85
309.29
310.973
311.723
311.123
308.797
304.608
298.483
290.77
282.42
273.676
264.336
255.168
247.782
243.241
245.22
253.94
273.528
295.183
321.767
364.178
398.824
464.418
472.075
389.645
377.461
304.555
337.175
314.705
299.729
322.704
269.256
269.899
257.134
231.632
176.308
115.801
61.4978
21.609
-43.7566
-133.441
-153.266
-119.498
-127.372
96.8334
61.2626
36.3246
33.714
47.9549
69.3552
91.7918
112.797
131.736
148.631
163.686
177.131
189.169
199.961
209.676
218.402
226.301
233.467
240.015
245.988
251.39
256.271
260.761
264.776
268.433
271.794
274.739
277.351
279.773
282.058
284.107
285.959
287.608
289.091
290.461
291.726
292.882
293.933
294.884
295.739
296.508
297.205
297.839
298.417
298.941
299.409
299.815
300.163
300.456
300.704
300.92
301.113
301.293
301.464
301.625
301.775
301.918
302.063
302.222
302.398
302.575
302.706
302.71
302.473
301.887
300.891
299.546
298.036
296.668
295.772
295.554
296.126
297.323
299.22
301.47
304.163
306.766
309.223
310.934
311.717
311.158
308.881
304.744
298.669
290.989
282.649
273.912
264.579
255.388
247.94
243.281
245.113
253.628
273.005
294.613
321.058
363.395
397.666
463.386
472.445
390.627
378.367
304.987
337.116
315.087
299.605
322.924
269.792
269.994
257.491
232.466
177.451
116.896
62.3916
22.5585
-42.4382
-132.455
-153.376
-119.732
-127.317
104.844
84.824
64.4716
55.4751
60.4614
75.0596
93.6983
112.829
130.91
147.445
162.376
175.808
187.888
198.752
208.547
217.367
225.364
232.617
239.23
245.28
250.747
255.675
260.223
264.323
268.016
271.277
274.177
276.917
279.518
281.819
283.902
285.77
287.435
288.936
290.323
291.603
292.773
293.836
294.798
295.661
296.439
297.143
297.784
298.369
298.899
299.372
299.783
300.135
300.432
300.685
300.904
301.1
301.283
301.455
301.616
301.766
301.908
302.052
302.209
302.384
302.561
302.694
302.703
302.476
301.902
300.92
299.586
298.08
296.707
295.8
295.563
296.114
297.289
299.165
301.399
304.082
306.686
309.157
310.894
311.712
311.195
308.963
304.869
298.831
291.172
282.851
274.129
264.811
255.602
248.097
243.316
244.996
253.338
272.629
294.159
320.456
362.733
396.752
462.219
472.637
391.334
379.126
305.352
337.053
315.343
299.475
323.126
270.117
270.071
257.779
233.039
178.291
117.695
63.01
23.2096
-41.5066
-131.889
-153.5
-119.904
-127.265
114.092
103.099
87.8145
76.852
75.7676
83.9468
97.8475
114.184
130.839
146.709
161.354
174.684
186.753
197.654
207.505
216.402
224.474
231.802
238.482
244.588
250.108
255.099
259.683
263.83
267.552
270.803
273.826
276.568
279.202
281.616
283.696
285.571
287.254
288.775
290.179
291.475
292.659
293.734
294.706
295.58
296.366
297.079
297.727
298.319
298.855
299.332
299.749
300.106
300.407
300.664
300.887
301.086
301.271
301.445
301.607
301.756
301.897
302.04
302.195
302.369
302.547
302.682
302.697
302.479
301.919
300.951
299.628
298.126
296.747
295.827
295.57
296.1
297.252
299.105
301.319
303.99
306.598
309.086
310.852
311.708
311.237
309.056
305.015
299.025
291.399
283.086
274.374
265.064
255.829
248.255
243.343
244.859
252.995
272.082
293.572
319.723
361.922
395.435
460.778
472.583
392.053
379.949
305.693
336.975
315.735
299.322
323.355
270.632
270.164
258.14
233.861
179.398
118.743
63.8561
24.1279
-40.2443
-130.974
-153.658
-120.132
-127.202
122.972
116.551
105.708
95.8857
92.0611
95.3489
104.429
117.226
131.738
146.482
160.603
173.719
185.725
196.638
206.534
215.496
223.634
231.028
237.764
243.923
249.503
254.533
259.152
263.332
267.097
270.363
273.474
276.274
278.947
281.321
283.488
285.38
287.066
288.61
290.031
291.342
292.541
293.628
294.611
295.495
296.29
297.011
297.667
298.266
298.808
299.291
299.712
300.074
300.381
300.642
300.869
301.072
301.259
301.434
301.596
301.745
301.885
302.026
302.181
302.353
302.531
302.669
302.691
302.483
301.938
300.985
299.673
298.175
296.789
295.853
295.576
296.083
297.21
299.04
301.233
303.894
306.504
309.01
310.809
311.707
311.284
309.157
305.168
299.225
291.625
283.33
274.629
265.327
256.059
248.408
243.356
244.699
252.625
271.558
292.989
318.974
361.096
394.107
459.031
472.156
392.671
380.702
305.946
336.87
316.051
299.14
323.585
271.041
270.254
258.529
234.61
180.428
119.703
64.5983
24.9354
-39.0961
-130.271
-153.846
-120.351
-127.136
131
127.061
119.677
112.03
107.593
107.909
113.06
122.199
133.973
147.002
160.204
172.901
184.756
195.65
205.586
214.615
222.823
230.282
237.075
243.283
248.916
253.998
258.646
262.848
266.659
269.966
273.143
275.994
278.684
281.11
283.214
285.154
286.895
288.438
289.88
291.206
292.419
293.519
294.512
295.407
296.211
296.941
297.605
298.21
298.758
299.247
299.674
300.041
300.353
300.619
300.85
301.056
301.246
301.422
301.585
301.733
301.872
302.012
302.165
302.337
302.516
302.656
302.685
302.489
301.958
301.021
299.721
298.226
296.83
295.878
295.578
296.061
297.163
298.969
301.141
303.789
306.404
308.931
310.764
311.707
311.338
309.268
305.337
299.444
291.876
283.594
274.9
265.601
256.29
248.55
243.349
244.51
252.207
270.96
292.328
318.147
360.193
392.58
456.984
471.292
393.126
381.387
306.061
336.724
316.501
298.921
323.819
271.574
270.349
258.881
235.476
181.559
120.749
65.4304
25.8601
-37.8024
-129.406
-154.069
-120.602
-127.066
138.514
136.183
131.142
125.413
121.369
120.338
122.865
128.876
137.768
148.606
160.396
172.32
183.831
194.627
204.585
213.688
221.983
229.527
236.391
242.657
248.346
253.486
258.166
262.394
266.249
269.614
272.833
275.733
278.429
280.864
283.009
284.917
286.663
288.293
289.721
291.067
292.295
293.406
294.411
295.315
296.129
296.867
297.539
298.151
298.706
299.201
299.634
300.007
300.324
300.595
300.83
301.04
301.232
301.41
301.572
301.72
301.858
301.997
302.149
302.32
302.499
302.643
302.679
302.495
301.98
301.059
299.771
298.278
296.873
295.9
295.575
296.034
297.109
298.891
301.041
303.678
306.296
308.846
310.718
311.71
311.398
309.391
305.52
299.682
292.143
283.872
275.188
265.884
256.515
248.672
243.316
244.287
251.742
270.332
291.622
317.266
359.224
391.061
454.672
469.989
394.133
381.947
305.962
336.516
316.8
298.653
324.043
272.04
270.442
259.422
236.331
182.67
121.762
66.2184
26.7483
-36.5342
-128.641
-154.349
-120.869
-126.994
145.688
144.432
140.847
136.522
133.226
131.864
132.908
136.627
142.969
151.491
161.488
172.218
183.059
193.564
203.463
212.627
221.029
228.687
235.654
242.004
247.769
252.978
257.705
261.971
265.869
269.301
272.548
275.487
278.185
280.624
282.782
284.717
286.466
288.061
289.606
290.932
292.168
293.292
294.307
295.221
296.044
296.791
297.471
298.09
298.651
299.152
299.591
299.971
300.294
300.57
300.81
301.024
301.218
301.396
301.559
301.707
301.843
301.981
302.131
302.301
302.481
302.629
302.672
302.501
302.004
301.1
299.823
298.332
296.908
295.919
295.567
295.999
297.047
298.805
300.934
303.557
306.181
308.757
310.67
311.716
311.467
309.527
305.721
299.937
292.429
284.171
275.49
266.172
256.724
248.765
243.249
244.026
251.22
269.615
290.841
316.307
358.235
389.523
452.132
468.281
394.59
382.352
305.551
336.216
317.404
298.328
324.244
272.582
270.526
259.836
237.241
183.788
122.787
67.04
27.6897
-35.2004
-127.809
-154.713
-121.17
-126.924
152.463
151.91
149.283
145.985
143.44
142.196
142.528
144.767
149.139
155.561
163.655
172.884
182.694
192.603
202.243
211.373
219.863
227.661
234.773
241.251
247.128
252.437
257.238
261.563
265.51
269.014
272.282
275.252
277.951
280.389
282.56
284.51
286.283
287.906
289.37
290.799
292.049
293.176
294.201
295.125
295.957
296.712
297.4
298.027
298.595
299.102
299.547
299.933
300.262
300.545
300.79
301.006
301.203
301.383
301.545
301.692
301.827
301.963
302.112
302.281
302.461
302.613
302.665
302.508
302.028
301.142
299.877
298.387
296.961
295.934
295.551
295.955
296.975
298.709
300.816
303.427
306.057
308.661
310.62
311.726
311.545
309.677
305.941
300.217
292.743
284.487
275.807
266.46
256.908
248.817
243.139
243.719
250.634
268.835
289.984
315.289
357.06
387.992
449.378
466.218
395.205
382.588
304.71
335.788
317.709
297.937
324.402
273.088
270.604
260.35
238.136
184.869
123.778
67.8414
28.6275
-33.8637
-127.035
-155.173
-121.505
-126.86
158.819
158.753
156.836
154.297
152.348
151.347
151.408
152.788
155.778
160.501
166.835
174.471
183.001
192.004
201.101
209.989
218.453
226.357
233.637
240.291
246.332
251.789
256.707
261.128
265.144
268.729
272.025
275.02
277.725
280.167
282.348
284.313
286.102
287.745
289.259
290.624
291.916
293.072
294.094
295.029
295.869
296.632
297.328
297.962
298.536
299.049
299.501
299.894
300.23
300.518
300.768
300.989
301.188
301.368
301.53
301.676
301.809
301.944
302.091
302.259
302.44
302.595
302.656
302.514
302.053
301.186
299.934
298.443
296.993
295.943
295.526
295.9
296.892
298.602
300.689
303.288
305.923
308.56
310.569
311.741
311.634
309.845
306.182
300.527
293.08
284.828
276.137
266.743
257.055
248.819
242.98
243.362
249.976
267.953
289.034
314.153
356.073
386.4
446.429
463.846
395.461
382.65
303.297
335.186
318.187
297.472
324.491
273.625
270.645
260.844
239.017
185.901
124.743
68.6607
29.5979
-32.4863
-126.253
-155.741
-121.891
-126.805
164.814
165.102
163.724
161.739
160.228
159.474
159.484
160.401
162.486
165.94
170.801
176.942
184.115
192.01
200.299
208.682
216.906
224.779
232.169
239.008
245.26
250.922
256.019
260.591
264.717
268.405
271.752
274.781
277.504
279.953
282.15
284.134
285.931
287.59
289.113
290.51
291.774
292.939
294.007
294.929
295.78
296.552
297.254
297.895
298.475
298.996
299.454
299.854
300.197
300.492
300.747
300.972
301.173
301.353
301.515
301.659
301.791
301.923
302.068
302.234
302.416
302.575
302.645
302.518
302.078
301.231
299.992
298.5
297.033
295.946
295.489
295.83
296.794
298.482
300.55
303.132
305.78
308.453
310.517
311.76
311.736
310.03
306.448
300.839
293.445
285.19
276.481
267.012
257.15
248.761
242.764
242.949
249.236
266.972
287.981
313.029
354.449
384.696
443.326
461.231
395.118
382.67
301.164
334.351
318.595
296.935
324.482
274.129
270.692
261.355
239.829
186.875
125.666
69.4778
30.579
-31.0956
-125.525
-156.436
-122.336
-126.763
170.493
171.029
170.054
168.484
167.305
166.766
166.809
167.488
169.002
171.561
175.274
180.132
186.017
192.738
200.052
207.705
215.453
223.082
230.425
237.362
243.808
249.71
255.048
259.839
264.137
267.972
271.415
274.506
277.271
279.746
281.965
283.966
285.786
287.452
288.984
290.388
291.67
292.826
293.87
294.863
295.699
296.471
297.181
297.827
298.414
298.941
299.406
299.813
300.164
300.465
300.726
300.954
301.157
301.338
301.499
301.641
301.771
301.901
302.043
302.207
302.388
302.552
302.631
302.52
302.101
301.277
300.052
298.558
297.067
295.94
295.439
295.743
296.677
298.344
300.398
302.964
305.623
308.339
310.463
311.786
311.851
310.241
306.742
301.256
293.851
285.58
276.835
267.259
257.182
248.636
242.487
242.472
248.403
265.864
286.805
311.599
353.327
382.851
440.111
458.502
394.232
382.836
298.155
333.205
319.047
296.334
324.342
274.632
270.605
261.849
240.54
187.788
126.552
70.317
31.5866
-29.677
-124.824
-157.27
-122.865
-126.737
175.875
176.576
175.908
174.664
173.746
173.379
173.474
174.031
175.192
177.139
180
183.823
188.581
194.18
200.467
207.252
214.332
221.506
228.596
235.461
241.985
248.077
253.667
258.732
263.277
267.328
270.932
274.139
276.987
279.52
281.781
283.812
285.653
287.334
288.877
290.276
291.566
292.733
293.783
294.716
295.615
296.4
297.108
297.761
298.353
298.885
299.358
299.772
300.13
300.439
300.705
300.937
301.143
301.324
301.483
301.623
301.75
301.876
302.015
302.176
302.357
302.523
302.612
302.518
302.123
301.322
300.113
298.618
297.1
295.926
295.372
295.635
296.538
298.191
300.225
302.792
305.455
308.217
310.408
311.819
311.983
310.464
307.068
301.654
294.293
286.002
277.199
267.473
257.139
248.437
242.144
241.922
247.464
264.616
285.488
310.383
351.731
380.861
436.77
455.831
392.956
383.012
294.136
331.652
319.534
295.69
324.049
275.096
270.641
262.316
241.111
188.644
127.405
71.1699
32.614
-28.2443
-124.181
-158.265
-123.51
-126.724
180.981
181.788
181.36
180.377
179.662
179.427
179.574
180.068
181.008
182.539
184.781
187.806
191.633
196.237
201.537
207.413
213.714
220.272
226.924
233.523
239.948
246.091
251.853
257.169
261.999
266.333
270.183
273.586
276.583
279.225
281.566
283.652
285.528
287.228
288.779
290.193
291.478
292.644
293.702
294.661
295.514
296.315
297.047
297.691
298.291
298.831
299.31
299.732
300.097
300.413
300.685
300.921
301.129
301.31
301.467
301.605
301.728
301.85
301.984
302.142
302.32
302.49
302.588
302.511
302.142
301.367
300.175
298.679
297.132
295.904
295.288
295.503
296.372
298.013
300.032
302.594
305.27
308.085
310.351
311.859
312.132
310.718
307.427
302.111
294.781
286.458
277.57
267.642
257.011
248.161
241.729
241.288
246.404
263.203
284.017
308.738
350.129
378.72
433.235
453.264
391.533
384.273
289.022
329.566
320.092
295.033
323.591
275.545
270.411
262.717
241.495
189.448
128.245
72.0476
33.6794
-26.7911
-123.584
-159.443
-124.297
-126.737
185.835
186.706
186.463
185.69
185.134
185
185.192
185.654
186.448
187.692
189.49
191.912
195
198.765
203.18
208.182
213.671
219.524
225.606
231.781
237.929
243.947
249.728
255.185
260.247
264.867
269.02
272.704
275.942
278.772
281.252
283.438
285.382
287.124
288.696
290.118
291.408
292.578
293.625
294.584
295.455
296.238
296.963
297.652
298.238
298.778
299.263
299.692
300.065
300.388
300.667
300.907
301.116
301.296
301.452
301.586
301.705
301.822
301.95
302.102
302.278
302.449
302.557
302.498
302.156
301.41
300.239
298.742
297.164
295.875
295.185
295.342
296.173
297.806
299.814
302.382
305.069
307.944
310.293
311.909
312.304
311.002
307.841
302.619
295.318
286.952
277.944
267.757
256.792
247.8
241.239
240.555
245.209
261.606
282.357
307.127
348.238
376.423
429.446
450.543
389.863
383.4
282.809
326.784
320.78
294.405
322.982
275.947
270.178
263.044
241.673
190.197
129.094
72.929
34.7977
-25.32
-123.032
-160.836
-125.276
-126.785
190.456
191.359
191.257
190.652
190.225
190.17
190.398
190.839
191.534
192.575
194.049
196.021
198.534
201.617
205.275
209.486
214.195
219.32
224.76
230.405
236.142
241.874
247.508
252.95
258.117
262.939
267.363
271.356
274.905
278.019
280.731
283.091
285.156
286.979
288.601
290.05
291.35
292.521
293.577
294.53
295.394
296.187
296.907
297.553
298.185
298.733
299.218
299.655
300.035
300.365
300.65
300.894
301.105
301.285
301.437
301.567
301.681
301.791
301.913
302.058
302.229
302.4
302.516
302.477
302.164
301.451
300.304
298.809
297.199
295.832
295.063
295.15
295.934
297.561
299.565
302.14
304.844
307.79
310.233
311.97
312.5
311.322
308.23
303.174
295.913
287.489
278.318
267.808
256.479
247.349
240.669
239.704
243.863
259.805
280.479
304.887
346.089
373.905
425.399
447.275
387.587
381.156
275.791
323.091
321.64
293.858
322.254
276.373
269.788
263.21
241.62
190.864
129.971
73.8044
36.0137
-23.8184
-122.514
-162.469
-126.552
-126.894
194.86
195.77
195.777
195.309
194.985
194.991
195.245
195.671
196.294
197.187
198.423
200.055
202.124
204.664
207.696
211.222
215.221
219.646
224.43
229.489
234.732
240.066
245.41
250.683
255.803
260.692
265.283
269.521
273.37
276.808
279.836
282.471
284.749
286.722
288.441
289.952
291.288
292.476
293.537
294.492
295.36
296.141
296.865
297.53
298.123
298.683
299.186
299.62
300.008
300.345
300.635
300.883
301.096
301.275
301.425
301.55
301.658
301.76
301.872
302.008
302.172
302.341
302.465
302.445
302.164
301.489
300.37
298.882
297.239
295.816
294.924
294.925
295.651
297.271
299.273
301.874
304.6
307.622
310.17
312.041
312.726
311.683
308.855
303.799
296.572
288.074
278.688
267.787
256.07
246.802
240.012
238.705
242.348
257.786
278.383
302.628
343.551
371.076
421.047
443.355
384.479
376.101
268.722
318.225
322.743
293.46
321.478
276.757
269.311
263.274
241.327
191.399
130.888
74.6301
37.3538
-22.272
-122.028
-164.38
-128.098
-127.095
199.062
199.962
200.05
199.695
199.454
199.506
199.777
200.191
200.759
201.541
202.596
203.969
205.694
207.806
210.329
213.28
216.658
220.443
224.596
229.061
233.768
238.641
243.602
248.584
253.518
258.331
262.954
267.321
271.382
275.097
278.442
281.406
283.992
286.221
288.128
289.762
291.175
292.41
293.498
294.465
295.333
296.12
296.838
297.489
298.095
298.642
299.137
299.602
299.989
300.327
300.624
300.876
301.09
301.268
301.415
301.534
301.634
301.727
301.828
301.952
302.106
302.271
302.401
302.401
302.155
301.523
300.439
298.963
297.288
295.774
294.775
294.666
295.316
296.925
298.932
301.569
304.308
307.435
310.104
312.124
312.989
312.086
309.382
304.495
297.302
288.711
279.049
267.689
255.566
246.15
239.257
237.559
240.651
255.534
276.031
299.897
340.578
367.864
416.205
438.725
380.896
368.708
262.911
311.853
324.165
293.289
320.739
277.292
268.73
263.087
240.828
191.73
131.836
75.3942
38.8586
-20.6541
-121.555
-166.584
-130.325
-127.453
203.074
203.951
204.1
203.837
203.663
203.75
204.032
204.434
204.958
205.653
206.567
207.739
209.198
210.97
213.084
215.561
218.411
221.632
225.206
229.099
233.267
237.649
242.179
246.793
251.438
256.054
260.577
264.944
269.098
272.988
276.576
279.832
282.739
285.289
287.49
289.359
290.935
292.271
293.421
294.426
295.315
296.109
296.827
297.482
298.075
298.623
299.118
299.557
299.968
300.321
300.617
300.872
301.089
301.266
301.408
301.522
301.613
301.694
301.781
301.889
302.03
302.187
302.322
302.342
302.133
301.55
300.511
299.054
297.353
295.758
294.618
294.376
294.927
296.515
298.529
301.218
304.01
307.228
310.034
312.22
313.285
312.541
310.021
305.269
298.109
289.403
279.399
267.511
254.966
245.387
238.387
236.262
238.76
253.038
273.415
296.869
337.119
364.24
410.723
433.25
377.985
361.468
260.073
303.669
325.966
293.435
320.183
277.821
268.123
262.732
240.185
191.776
132.786
76.0285
40.4564
-18.9331
-121.091
-169.105
-132.841
-128.017
206.908
207.753
207.946
207.758
207.639
207.752
208.039
208.429
208.916
209.54
210.344
211.358
212.605
214.109
215.894
217.982
220.391
223.127
226.187
229.555
233.204
237.093
241.173
245.386
249.68
254.011
258.33
262.58
266.705
270.652
274.376
277.835
281
283.847
286.362
288.543
290.399
291.953
293.244
294.33
295.268
296.093
296.827
297.484
298.08
298.625
299.107
299.558
299.952
300.303
300.621
300.878
301.092
301.267
301.406
301.513
301.595
301.663
301.733
301.822
301.945
302.09
302.226
302.265
302.097
301.57
300.585
299.16
297.441
295.758
294.472
294.066
294.482
296.03
298.052
300.805
303.649
306.996
309.956
312.328
313.612
313.057
310.721
306.127
298.997
290.153
279.733
267.254
254.27
244.507
237.38
234.792
236.661
250.273
270.513
293.453
333.131
360.163
404.927
427.097
376.472
356.218
261.714
293.402
328.283
293.995
319.939
278.814
267.532
262.043
239.389
191.466
133.697
76.5228
42.1037
-17.0711
-120.63
-171.909
-136.225
-128.828
210.575
211.381
211.605
211.477
211.404
211.536
211.823
212.2
212.655
213.222
213.935
214.822
215.9
217.188
218.708
220.481
222.525
224.852
227.466
230.365
233.535
236.951
240.581
244.38
248.301
252.299
256.34
260.382
264.375
268.27
272.017
275.573
278.9
281.965
284.744
287.219
289.384
291.24
292.801
294.089
295.147
296.034
296.806
297.489
298.096
298.639
299.126
299.563
299.958
300.309
300.612
300.88
301.106
301.281
301.413
301.512
301.582
301.634
301.684
301.749
301.849
301.978
302.112
302.167
302.043
301.58
300.661
299.285
297.555
295.795
294.335
293.745
293.983
295.461
297.484
300.319
303.249
306.728
309.871
312.45
313.977
313.631
311.494
307.078
299.968
290.961
280.048
266.922
253.475
243.499
236.212
233.126
234.341
247.215
267.31
289.656
328.605
355.517
398.843
420.499
375.284
351.474
266.57
280.793
330.872
295.076
320.229
279.873
267.154
261.161
238.478
190.735
134.484
76.7397
43.5144
-15.0409
-120.176
-174.914
-140.394
-129.953
214.082
214.845
215.09
215.012
214.976
215.121
215.406
215.768
216.195
216.713
217.352
218.134
219.075
220.189
221.495
223.01
224.753
226.738
228.973
231.462
234.202
237.182
240.38
243.767
247.307
250.957
254.683
258.455
262.238
265.99
269.663
273.213
276.601
279.789
282.747
285.45
287.879
290.026
291.888
293.472
294.791
295.866
296.736
297.462
298.096
298.661
299.155
299.593
299.985
300.323
300.634
300.896
301.113
301.291
301.426
301.52
301.578
301.612
301.638
301.675
301.746
301.851
301.977
302.047
301.967
301.576
300.737
299.427
297.714
295.879
294.251
293.43
293.438
294.802
296.808
299.739
302.771
306.437
309.775
312.588
314.391
314.268
312.35
308.125
301.02
291.823
280.343
266.523
252.584
242.357
234.865
231.25
231.782
243.84
263.783
285.458
323.485
350.219
391.992
413.339
372.756
343.84
268.837
265.505
333.59
296.814
321.176
281.952
267.009
259.892
237.368
189.528
135.102
76.6718
44.636
-12.8291
-119.717
-178.108
-145.505
-131.415
217.437
218.156
218.414
218.377
218.37
218.524
218.804
219.151
219.552
220.028
220.605
221.301
222.129
223.101
224.231
225.536
227.031
228.731
230.646
232.784
235.147
237.733
240.531
243.524
246.685
249.984
253.384
256.857
260.379
263.92
267.441
270.901
274.259
277.478
280.524
283.369
285.989
288.368
290.493
292.361
293.975
295.339
296.463
297.362
298.071
298.656
299.168
299.626
300.024
300.366
300.667
300.923
301.147
301.323
301.449
301.534
301.581
301.599
301.598
301.601
301.637
301.711
301.822
301.901
301.866
301.554
300.813
299.592
297.921
296.028
294.232
293.149
292.865
294.055
296.007
299.043
302.217
306.048
309.659
312.739
314.853
315.122
313.296
309.272
302.154
292.734
280.618
266.062
251.589
241.06
233.31
229.142
228.975
240.128
259.907
280.849
317.761
344.225
384.427
405.196
369.515
332.807
263.82
247.482
336.307
299.25
323
284.193
267.469
258.496
236.049
187.811
135.342
76.0784
44.9563
-10.4955
-119.221
-181.051
-151.56
-133.171
220.65
221.324
221.587
221.583
221.601
221.76
222.033
222.365
222.742
223.181
223.705
224.329
225.063
225.917
226.903
228.034
229.325
230.788
232.435
234.274
236.312
238.551
240.988
243.614
246.413
249.364
252.438
255.606
258.842
262.13
265.441
268.744
271.999
275.17
278.222
281.125
283.854
286.389
288.713
290.814
292.685
294.325
295.734
296.915
297.872
298.615
299.178
299.632
300.04
300.409
300.721
300.978
301.188
301.361
301.49
301.57
301.602
301.598
301.565
301.53
301.524
301.559
301.648
301.73
301.737
301.51
300.882
299.778
298.184
296.272
294.296
292.936
292.275
293.222
295.063
298.193
301.54
305.697
309.532
312.907
315.365
315.968
314.337
310.525
303.36
293.685
280.876
265.552
250.501
239.6
231.538
226.796
225.908
236.09
255.663
275.821
311.41
337.477
376.447
395.842
365.789
320.319
255.879
226.556
338.715
302.389
325.765
288.076
268.45
256.698
234.395
185.522
135.182
75.032
44.578
-8.13304
-118.528
-183.97
-158.447
-135.124
223.727
224.355
224.62
224.642
224.68
224.842
225.106
225.423
225.778
226.185
226.662
227.225
227.88
228.636
229.502
230.489
231.61
232.876
234.298
235.886
237.646
239.584
241.701
243.994
246.456
249.073
251.826
254.691
257.64
260.656
263.722
266.817
269.91
272.969
275.96
278.851
281.615
284.23
286.678
288.944
291.017
292.885
294.543
295.988
297.218
298.236
299.042
299.644
300.077
300.414
300.737
301.033
301.264
301.433
301.545
301.618
301.64
301.615
301.555
301.467
301.415
301.401
301.458
301.533
301.578
301.438
300.94
299.983
298.513
296.62
294.497
292.829
291.725
292.319
293.959
297.16
300.721
305.025
309.354
313.077
315.923
316.932
315.481
311.887
304.643
294.673
281.115
264.991
249.304
237.941
229.51
224.18
222.585
231.677
251.032
270.382
304.424
329.907
367.758
385.284
361.217
306.862
240.592
202.575
340.197
306.136
329.518
292.2
270.507
254.991
232.351
182.635
134.167
73.1359
42.7386
-6.07032
-117.379
-186.881
-165.862
-137.092
226.676
227.259
227.522
227.565
227.618
227.782
228.036
228.338
228.672
229.049
229.487
229.996
230.584
231.257
232.023
232.89
233.87
234.972
236.206
237.58
239.104
240.782
242.62
244.618
246.773
249.079
251.524
254.091
256.759
259.504
262.312
265.169
268.058
270.955
273.828
276.647
279.385
282.017
284.522
286.884
289.09
291.126
292.982
294.648
296.115
297.381
298.446
299.314
299.989
300.472
300.798
301.039
301.285
301.508
301.643
301.704
301.701
301.652
301.565
301.438
301.313
301.244
301.257
301.316
301.389
301.332
300.977
300.2
298.911
297.109
294.876
292.906
291.268
291.37
292.688
295.868
299.687
304.457
309.151
313.266
316.544
318.006
316.743
313.365
305.991
295.689
281.355
264.404
248.018
236.083
227.235
221.321
218.971
227.016
246.027
264.553
296.818
321.535
357.942
373.965
356.013
290.786
219.28
175.793
340.34
310.386
334.166
298.557
273.233
252.949
229.84
179.115
132.447
70.613
39.7803
-4.62591
-115.192
-188.466
-173.103
-138.955
229.503
230.043
230.3
230.36
230.426
230.589
230.833
231.119
231.434
231.785
232.187
232.65
233.181
233.783
234.464
235.231
236.092
237.056
238.132
239.327
240.65
242.107
243.703
245.441
247.323
249.346
251.503
253.785
256.176
258.659
261.213
263.824
266.486
269.182
271.893
274.592
277.251
279.846
282.352
284.752
287.029
289.17
291.162
292.994
294.653
296.129
297.416
298.515
299.431
300.175
300.747
301.138
301.379
301.51
301.677
301.794
301.811
301.715
301.579
301.422
301.265
301.102
301.057
301.088
301.169
301.188
300.985
300.417
299.376
297.755
295.484
293.194
290.954
290.413
291.246
294.289
298.369
303.458
308.827
313.426
317.208
319.181
318.14
314.977
307.429
296.744
281.579
263.765
246.61
233.982
224.659
218.169
215.147
221.91
240.644
258.389
288.643
312.516
347.263
362.287
349.391
272.754
193.633
147.636
338.148
315.049
339.345
304.36
277.395
251.312
226.767
174.831
129.203
66.8286
34.7053
-4.6165
-111.602
-190.212
-179.966
-140.835
232.214
232.713
232.962
233.035
233.111
233.272
233.506
233.778
234.074
234.401
234.771
235.195
235.675
236.217
236.826
237.507
238.268
239.116
240.058
241.102
242.255
243.522
244.91
246.424
248.064
249.834
251.728
253.744
255.871
258.097
260.407
262.781
265.211
267.689
270.206
272.743
275.28
277.79
280.251
282.639
284.937
287.129
289.2
291.138
292.931
294.569
296.04
297.338
298.461
299.415
300.211
300.864
301.362
301.684
301.803
301.781
301.837
301.829
301.693
301.421
301.183
301.002
300.917
300.865
300.939
301.01
300.944
300.609
299.894
298.586
296.393
293.908
290.927
289.485
289.603
292.295
296.615
302.411
308.438
313.605
317.97
320.531
319.71
316.745
308.957
297.84
281.85
263.126
245.107
231.642
221.811
214.774
211.141
216.773
234.967
251.938
279.973
303.043
336.588
350.772
340.457
258.265
169.219
123.116
333.211
319.486
345.176
313.669
282.028
249.432
223.19
170.087
125.011
62.3152
28.2426
-6.46276
-106.318
-190.855
-185.672
-144.158
234.815
235.275
235.515
235.598
235.682
235.84
236.063
236.32
236.599
236.904
237.247
237.635
238.072
238.562
239.108
239.716
240.391
241.14
241.97
242.885
243.893
244.999
246.209
247.528
248.959
250.504
252.164
253.937
255.818
257.799
259.871
262.019
264.227
266.488
268.797
271.147
273.524
275.91
278.28
280.614
282.889
285.086
287.19
289.185
291.061
292.805
294.408
295.862
297.162
298.303
299.292
300.134
300.84
301.409
301.831
302.073
301.997
301.732
301.645
301.53
301.292
300.91
300.678
300.656
300.766
300.795
300.842
300.755
300.425
299.591
297.64