/*--------------------------------*- C++ -*----------------------------------*\
| =========                 |                                                 |
| \\      /  F ield         | OpenFOAM: The Open Source CFD Toolbox           |
|  \\    /   O peration     | Version:  2412                                  |
|   \\  /    A nd           | Website:  www.openfoam.com                      |
|    \\/     M anipulation  |                                                 |
\*---------------------------------------------------------------------------*/
FoamFile
{
    version     2.0;
    format      ascii;
    arch        "LSB;label=32;scalar=64";
    class       surfaceScalarField;
    location    "1.17";
    object      phi;
}
// * * * * * * * * * * * * * * * * * * * * * * * * * * * * * * * * * * * * * //

dimensions      [0 3 -1 0 0 0 0];

oriented        oriented;

internalField   nonuniform List<scalar> 
24930
(
0.0158686
0.0211606
-0.0370072
0.00652308
0.00934557
0.00299717
0.00352588
0.00167704
0.00132012
0.00107848
0.00059855
0.00072877
0.000349694
0.000493441
0.000235313
0.000324607
0.000168816
0.000199312
0.000125279
0.000104471
9.4834e-05
3.09055e-05
7.35699e-05
-2.62197e-05
5.71384e-05
-7.10737e-05
4.4866e-05
-0.000106345
3.52699e-05
-0.000132839
2.64743e-05
-0.000154142
2.12754e-05
-0.000169752
1.55808e-05
-0.000181561
1.17947e-05
-0.000189759
8.21146e-06
-0.000195135
5.40792e-06
-0.000198069
2.94146e-06
-0.000198981
9.66912e-07
-0.000198398
-5.0338e-07
-0.00019632
-2.13891e-06
-0.000193284
-2.88526e-06
-0.000189339
-3.99987e-06
-0.00018444
-5.2449e-06
-0.000179166
-5.47542e-06
-0.000173485
-5.71519e-06
-0.000167512
-5.96913e-06
-0.000161333
-6.15739e-06
-0.000155031
-6.27855e-06
-0.000148685
-6.36826e-06
-0.000142307
-6.40192e-06
-0.000135958
-6.34967e-06
-0.000129699
-6.2515e-06
-0.000123534
-6.15513e-06
-0.000117516
-6.00985e-06
-0.000111648
-5.86793e-06
-0.000105957
-5.69969e-06
-0.000100479
-5.48502e-06
-9.51892e-05
-5.29262e-06
-9.00878e-05
-5.0987e-06
-8.51677e-05
-4.9137e-06
-8.04225e-05
-4.73796e-06
-7.58518e-05
-4.56537e-06
-7.14816e-05
-4.36753e-06
-6.73575e-05
-4.1239e-06
-6.35648e-05
-3.79399e-06
-6.01833e-05
-3.38237e-06
-5.73165e-05
-2.86546e-06
-5.50497e-05
-2.26159e-06
-5.34322e-05
-1.60659e-06
-5.24679e-05
-9.47982e-07
-5.20638e-05
-3.88518e-07
-5.20044e-05
-5.33166e-08
-5.18918e-05
-1.28606e-07
-5.10871e-05
-8.22759e-07
-4.86594e-05
-2.43977e-06
-4.33924e-05
-5.27319e-06
-3.39063e-05
-9.4889e-06
-1.89638e-05
-1.49439e-05
2.18592e-06
-2.11504e-05
2.85317e-05
-2.63446e-05
5.787e-05
-2.93366e-05
8.55296e-05
-2.76602e-05
0.000105685
-2.01612e-05
0.000112442
-6.77698e-06
0.000102315
1.01202e-05
7.55287e-05
2.6785e-05
3.61764e-05
3.93505e-05
-8.28183e-06
4.44615e-05
-4.98251e-05
4.1552e-05
-7.75905e-05
2.778e-05
-8.78647e-05
1.02982e-05
-7.81481e-05
-9.70256e-06
-5.48752e-05
-2.32685e-05
-2.23466e-05
-3.25249e-05
1.36278e-05
-3.59605e-05
5.32646e-05
-3.96309e-05
9.73126e-05
-4.40151e-05
0.000141998
-4.46237e-05
0.00018439
-4.23113e-05
0.000212462
-2.80132e-05
0.000209191
3.21024e-06
0.000164102
4.50599e-05
6.70817e-05
9.69498e-05
-0.000117211
0.000184248
-0.00041053
0.000293279
-0.00075965
0.000349071
-0.0010751
0.000315424
-0.00135312
0.000277962
-0.00160668
0.000253385
-0.00166362
5.67073e-05
-0.00164985
-1.36443e-05
-0.00207399
0.000424224
-0.0025009
0.000427021
-0.00239703
-0.000103502
0.00138276
-0.00377974
0.00494964
-0.00356693
0.00370876
0.00124091
0.00240411
0.00130486
0.000638361
0.00176578
0.000198594
0.000439785
0.000279494
-8.09771e-05
0.000893104
-0.000613643
0.00206099
-0.00116803
0.00181273
0.000247992
0.00203185
-0.000219189
0.00262302
-0.000591198
0.00263956
-1.63824e-05
0.00156406
0.00107559
5.76441e-05
0.0015064
-0.000861533
0.000919107
0.000245489
-0.00110704
0.00245492
-0.00220947
0.00205078
0.000404174
0.000489466
0.00156129
0.00127196
-0.000782494
-0.00100062
0.0335473
0.0301766
-0.0425632
0.0224923
0.0204005
0.0142024
0.0118157
0.00911025
0.00641228
0.0061243
0.00358449
0.00429297
0.00218101
0.00307781
0.00145045
0.00221778
0.00102882
0.00158235
0.000760687
0.00109872
0.000578446
0.00072409
0.000448178
0.000429764
0.000351443
0.000196993
0.000277616
1.57908e-05
0.000216466
-0.00013965
0.000181912
-0.000261834
0.000143463
-0.0003577
0.000111445
-0.000433184
8.72623e-05
-0.000491433
6.64132e-05
-0.000535502
4.94381e-05
-0.000567697
3.51428e-05
-0.000589608
2.28483e-05
-0.0006035
1.33525e-05
-0.000610334
4.75707e-06
-0.000611659
-1.59571e-06
-0.000608233
-7.42148e-06
-0.000600583
-1.29225e-05
-0.000589976
-1.60417e-05
-0.000576802
-1.88297e-05
-0.000561578
-2.1178e-05
-0.000544806
-2.2946e-05
-0.000526888
-2.41897e-05
-0.000508157
-2.50845e-05
-0.000488792
-2.57495e-05
-0.000469074
-2.60507e-05
-0.000449266
-2.60549e-05
-0.000429467
-2.59565e-05
-0.000409872
-2.56011e-05
-0.000390575
-2.51541e-05
-0.000371687
-2.45678e-05
-0.000353349
-2.38012e-05
-0.00033554
-2.30859e-05
-0.000318268
-2.23622e-05
-0.000301533
-2.16437e-05
-0.000285329
-2.09367e-05
-0.000269676
-2.02121e-05
-0.00025467
-1.9366e-05
-0.000240482
-1.83033e-05
-0.000227401
-1.68681e-05
-0.000215721
-1.506e-05
-0.000205791
-1.27958e-05
-0.000197912
-1.01449e-05
-0.000192254
-7.27225e-06
-0.000188823
-4.38911e-06
-0.000187283
-1.93493e-06
-0.00018687
-4.63692e-07
-0.000186206
-7.90499e-07
-0.000183072
-3.94609e-06
-0.000174246
-1.12609e-05
-0.000155554
-2.3965e-05
-0.000122336
-4.27094e-05
-7.03792e-05
-6.69018e-05
2.77918e-06
-9.43086e-05
9.37733e-05
-0.00011734
0.000195439
-0.000131004
0.000292125
-0.000124349
0.000364225
-9.22645e-05
0.000391594
-3.41404e-05
0.000361606
4.0102e-05
0.000273484
0.000114897
0.000140717
0.000172113
-1.18505e-05
0.000197024
-0.000154329
0.000184028
-0.000250166
0.000123612
-0.000283172
4.32982e-05
-0.00024926
-4.36174e-05
-0.000168686
-0.000103835
-6.08769e-05
-0.000140328
5.50271e-05
-0.000151859
0.000179555
-0.000164147
0.000314522
-0.000178988
0.000450009
-0.000180134
0.00057518
-0.000167528
0.000653995
-0.000106848
0.000630047
2.71209e-05
0.000459542
0.000215584
9.6758e-05
0.000459775
-0.000563386
0.000844411
-0.00159816
0.00132807
-0.00280756
0.0015585
-0.00384507
0.00135294
-0.00472079
0.0011537
-0.00546396
0.000996665
-0.00559935
0.000192095
-0.00543302
-0.000180061
-0.00672113
0.00171224
-0.00818861
0.00189442
-0.00767904
-0.000613332
0.00476969
-0.0162285
0.0165118
-0.015309
0.0126846
0.00506809
0.00783637
0.00615311
0.00230079
0.00730131
0.000505258
0.00223535
0.000782429
-0.000358249
0.00316762
-0.00299876
0.00662978
-0.00463023
0.0061894
0.000688626
0.00689865
-0.000928451
0.00845119
-0.0021437
0.00760404
0.000830661
0.00337533
0.00530423
-0.00179998
0.00668173
-0.00500741
0.00412659
-0.00182143
-0.004293
0.00563446
-0.00966532
0.00625037
-0.000211751
0.00223147
0.00558016
0.00465493
-0.00320593
-0.00429691
0.0433492
0.0324948
-0.0456674
0.0359797
0.02777
0.0273296
0.0204657
0.0198706
0.0138713
0.0143507
0.00910441
0.0104883
0.00604336
0.00777645
0.00416228
0.00581522
0.00299002
0.00434996
0.00222593
0.00322614
0.00170226
0.00234694
0.00132736
0.00164926
0.00104911
0.00108991
0.000836952
0.000638208
0.000668162
0.000274977
0.000545134
-1.76582e-05
0.00043609
-0.000260252
0.000354029
-0.000454105
0.000281102
-0.000608685
0.000220948
-0.000730658
0.000171358
-0.000825296
0.0001298
-0.000896834
9.43119e-05
-0.000949099
6.55176e-05
-0.000984896
4.07096e-05
-0.00100668
2.00863e-05
-0.00101731
3.26669e-06
-0.00101855
-1.1587e-05
-0.00101235
-2.21734e-05
-0.00099937
-3.17671e-05
-0.000981105
-3.94303e-05
-0.000958613
-4.54437e-05
-0.000932829
-4.9962e-05
-0.000904517
-5.33865e-05
-0.000874174
-5.60839e-05
-0.000842422
-5.77898e-05
-0.00080984
-5.86278e-05
-0.000776729
-5.90639e-05
-0.000743505
-5.88194e-05
-0.000710421
-5.82293e-05
-0.000677735
-5.72427e-05
-0.00064575
-5.57743e-05
-0.000614493
-5.43327e-05
-0.000584007
-5.2839e-05
-0.000554336
-5.13073e-05
-0.0005255
-4.97659e-05
-0.000497561
-4.8144e-05
-0.000470707
-4.6213e-05
-0.000445266
-4.37382e-05
-0.000421759
-4.03708e-05
-0.00040073
-3.60863e-05
-0.000382813
-3.07134e-05
-0.000368551
-2.44073e-05
-0.000358255
-1.75692e-05
-0.00035192
-1.07253e-05
-0.000348936
-4.91985e-06
-0.000347902
-1.49608e-06
-0.000346316
-2.36573e-06
-0.00034015
-1.01083e-05
-0.000323632
-2.7779e-05
-0.000289318
-5.82805e-05
-0.000228936
-0.000103093
-0.000135069
-0.00016077
-3.46474e-06
-0.000225912
0.00016078
-0.000281583
0.000344394
-0.000314618
0.000520512
-0.000300469
0.000654546
-0.000226303
0.000710387
-8.99869e-05
0.000664227
8.62528e-05
0.000512777
0.000266337
0.000278668
0.000406215
5.6145e-06
0.000470075
-0.000250487
0.000440131
-0.000423379
0.00029651
-0.000482087
0.000102012
-0.000421864
-0.000103833
-0.000279346
-0.000246338
-9.26963e-05
-0.000326966
0.000104315
-0.000348856
0.000311161
-0.000370978
0.000531149
-0.000398969
0.00074985
-0.000398832
0.000948561
-0.000366246
0.00106806
-0.000226353
0.00100895
8.6282e-05
0.000682766
0.000541761
-4.25406e-06
0.00114679
-0.00123411
0.00207426
-0.00313783
0.00323179
-0.00531499
0.00373567
-0.00710237
0.0031403
-0.008545
0.00259631
-0.00972153
0.00217321
-0.00985348
0.000324007
-0.00938676
-0.00064684
-0.0115328
0.00385821
-0.0139804
0.00434202
-0.0131729
-0.00142097
0.00813714
-0.0375385
0.0288627
-0.0360346
0.0227528
0.011178
0.0139499
0.0149561
0.00429028
0.0169609
0.000745369
0.00578029
0.0012135
-0.000826498
0.00570364
-0.00748884
0.0114679
-0.0103946
0.0110162
0.00114038
0.0122558
-0.00216807
0.0143095
-0.00419742
0.0117866
0.00335351
0.00358135
0.0135095
-0.00564763
0.0159107
-0.0112737
0.00975263
-0.00602991
-0.00953674
0.0070781
-0.0227733
0.00994584
-0.00307952
0.00431895
0.011207
0.00855337
-0.00744034
-0.0101068
0.0491872
0.0320057
-0.0486981
0.0458884
0.0310688
0.0395254
0.0268287
0.0320914
0.0213052
0.0251667
0.0160291
0.0194534
0.0117567
0.0150012
0.00861449
0.0115849
0.00640622
0.00894833
0.00486252
0.00688674
0.00376384
0.00525273
0.00296136
0.00394243
0.0023594
0.00288198
0.00189739
0.00201766
0.00153248
0.00131305
0.00124973
0.000734471
0.00101466
0.000261535
0.00082695
-0.000125362
0.00066799
-0.000442125
0.000537677
-0.000697566
0.000426763
-0.000901805
0.000334092
-0.00106235
0.000254848
-0.00118657
0.000189635
-0.00127971
0.000133962
-0.00134732
8.75342e-05
-0.00139258
4.87141e-05
-0.00141886
1.48576e-05
-0.00142985
-1.11959e-05
-0.00142921
-3.23845e-05
-0.00141729
-5.13351e-05
-0.00139662
-6.61124e-05
-0.00136895
-7.76298e-05
-0.0013357
-8.66277e-05
-0.00129789
-9.38828e-05
-0.00125667
-9.90037e-05
-0.00121308
-0.000102203
-0.00116778
-0.000104368
-0.00112149
-0.000105098
-0.00107475
-0.000104965
-0.00102803
-0.000103954
-0.000981869
-0.000101925
-0.000936413
-9.97793e-05
-0.000891791
-9.74528e-05
-0.000848128
-9.49629e-05
-0.000805507
-9.23802e-05
-0.000764064
-8.95803e-05
-0.000724109
-8.61613e-05
-0.000686156
-8.16845e-05
-0.000650999
-7.5524e-05
-0.000619475
-6.76087e-05
-0.000592538
-5.76508e-05
-0.000571016
-4.593e-05
-0.00055538
-3.32066e-05
-0.00054561
-2.04948e-05
-0.000540784
-9.74577e-06
-0.000538787
-3.4944e-06
-0.000535847
-5.30058e-06
-0.000525918
-2.00359e-05
-0.00050037
-5.33276e-05
-0.000448161
-0.000110491
-0.000357081
-0.000194174
-0.000216212
-0.00030164
-1.9556e-05
-0.000422567
0.000226856
-0.000527995
0.00050287
-0.00059063
0.000770054
-0.000567654
0.000977772
-0.000434026
0.00107212
-0.000184347
0.00101575
0.000142619
0.000800614
0.00048146
0.000457931
0.000748892
5.18993e-05
0.000876104
-0.000331799
0.000823832
-0.000592782
0.000557501
-0.000682378
0.00019162
-0.000596004
-0.000190194
-0.000388575
-0.000453747
-0.000121008
-0.00059452
0.000155414
-0.000625262
0.000439956
-0.000655503
0.000737739
-0.000696742
0.0010307
-0.000691786
0.00129196
-0.000627516
0.00144067
-0.000375078
0.00132982
0.000197148
0.000811621
0.00105995
-0.000258089
0.00221649
-0.00217352
0.00398968
-0.00507439
0.00613266
-0.00831435
0.00697563
-0.0108599
0.00568582
-0.0128191
0.00455555
-0.0143543
0.00370841
-0.0143914
0.000361109
-0.013478
-0.00156034
-0.016418
0.00679821
-0.0196465
0.0075705
-0.018586
-0.0024816
0.0109833
-0.0671079
0.0412979
-0.0663492
0.0338907
0.0185851
0.0209569
0.0278901
0.00667962
0.0312381
0.00093409
0.0115259
0.0015733
-0.00146582
0.0084263
-0.0143418
0.0165313
-0.0184997
0.0162611
0.00141071
0.0180671
-0.00397411
0.0200777
-0.00620801
0.0148571
0.00857408
0.00181498
0.0265516
-0.0116461
0.0293718
-0.0194461
0.0175527
-0.012068
-0.0169149
0.00683055
-0.0416719
0.0130286
-0.00927757
0.00648889
0.0177467
0.0127163
-0.0136677
-0.018707
0.0530221
0.0308594
-0.0518758
0.0524123
0.0316786
0.0490276
0.0302133
0.0434715
0.0268613
0.0369318
0.0225688
0.0304649
0.0182236
0.0246864
0.0143929
0.0198083
0.0112843
0.0158013
0.00886951
0.0125402
0.007025
0.00988576
0.00561574
0.00771693
0.00452823
0.00593643
0.00367787
0.00446803
0.00300087
0.00325574
0.00246201
0.00225087
0.00201951
0.00141916
0.00165864
0.000730579
0.00135656
0.000163259
0.00110497
-0.000303567
0.000893554
-0.000684531
0.00071511
-0.000991661
0.000561991
-0.00123669
0.000434587
-0.00142866
0.00032599
-0.00157562
0.000234409
-0.00168453
0.000157649
-0.00176249
9.30605e-05
-0.00181309
3.94384e-05
-0.00183897
-6.45319e-06
-0.00184848
-4.17981e-05
-0.00184162
-7.29729e-05
-0.0018217
-9.75489e-05
-0.00179124
-0.00011708
-0.00175209
-0.000133028
-0.00170613
-0.000144953
-0.00165514
-0.000153189
-0.00160026
-0.000159238
-0.00154274
-0.000162609
-0.0014835
-0.000164196
-0.00142336
-0.000164085
-0.0013632
-0.00016208
-0.00130336
-0.000159608
-0.00124413
-0.000156673
-0.00118578
-0.000153305
-0.00112851
-0.000149646
-0.00107256
-0.000145516
-0.00101842
-0.000140294
-0.000966823
-0.000133276
-0.000918876
-0.000123467
-0.000875756
-0.000110726
-0.000838784
-9.46227e-05
-0.000809113
-7.56012e-05
-0.0007874
-5.49199e-05
-0.000773617
-3.42763e-05
-0.000766491
-1.68696e-05
-0.000763097
-6.88857e-06
-0.000758242
-1.01525e-05
-0.000743655
-3.46227e-05
-0.000707607
-8.93768e-05
-0.000635155
-0.000182945
-0.000509853
-0.000319478
-0.000316978
-0.000494515
-4.84824e-05
-0.000691062
0.000288486
-0.000864961
0.000667258
-0.000969402
0.00103753
-0.000937929
0.0013319
-0.0007284
0.00147694
-0.000329395
0.00141923
0.000200313
0.00114333
0.000757359
0.000687202
0.00120501
0.000136836
0.00142647
-0.000388713
0.00134939
-0.000750209
0.000919006
-0.000878605
0.000320032
-0.000769272
-0.000299513
-0.000497644
-0.000725356
-0.000150581
-0.00094157
0.000200701
-0.000976527
0.000555115
-0.0010099
0.000920685
-0.0010623
0.00127611
-0.0010472
0.00158681
-0.000938209
0.00175126
-0.000539536
0.0015698
0.000378588
0.000819434
0.0018103
-0.00071197
0.00374788
-0.00343154
0.00670924
-0.00746325
0.0101644
-0.0118366
0.011349
-0.015105
0.00895412
-0.017494
0.00694459
-0.0193022
0.00551657
-0.0191314
0.000190238
-0.0176145
-0.00307731
-0.0212473
0.010431
-0.0248732
0.0111964
-0.023314
-0.00404094
0.012856
-0.103278
0.0526666
-0.10616
0.0459946
0.025257
0.0290977
0.0447871
0.00960751
0.0507283
0.00113903
0.0199944
0.00186862
-0.00219553
0.0112584
-0.0237314
0.0218123
-0.0290538
0.0219266
0.00129652
0.0242706
-0.00631821
0.0255666
-0.00750395
0.016655
0.0174857
-0.00187259
0.0450792
-0.0195841
0.0470834
-0.0290313
0.0269998
-0.0191404
-0.0268057
0.00543918
-0.0662515
0.015388
-0.0192264
0.00840516
0.0247295
0.0167489
-0.0220114
-0.0304858
0.0561841
0.0298907
-0.0552154
0.0567517
0.031111
0.0556868
0.0312783
0.052569
0.029979
0.0477481
0.0273897
0.0419526
0.0240191
0.0359113
0.0204342
0.0301552
0.0170403
0.0249754
0.0140493
0.0204726
0.0115278
0.0166331
0.00945525
0.0133906
0.00777068
0.0106638
0.00640472
0.00837337
0.00529125
0.00645239
0.00438297
0.00484024
0.00363164
0.00348943
0.00300944
0.00235846
0.00248752
0.00141441
0.00204898
0.000629523
0.0016784
-1.80696e-05
0.00136275
-0.000553405
0.00109734
-0.000988277
0.000869427
-0.00133814
0.00067589
-0.00161556
0.000511783
-0.00183113
0.000373172
-0.00199409
0.000256053
-0.00211327
0.000158592
-0.00219705
7.72936e-05
-0.0022449
6.10136e-06
-0.00226969
-4.81726e-05
-0.00227233
-9.49032e-05
-0.00225659
-0.000132822
-0.00222569
-0.000163919
-0.00218266
-0.000187978
-0.00213027
-0.000205568
-0.00207047
-0.000219034
-0.0020052
-0.000227868
-0.00193599
-0.000233399
-0.00186414
-0.00023592
-0.00179103
-0.000235178
-0.00171735
-0.000233287
-0.00164361
-0.000230397
-0.00157033
-0.000226577
-0.00149789
-0.000222078
-0.00142673
-0.000216674
-0.00135752
-0.000209492
-0.00129129
-0.000199502
-0.00122951
-0.000185245
-0.00117374
-0.000166489
-0.00112573
-0.000142631
-0.00108701
-0.000114328
-0.00105843
-8.34916e-05
-0.00103999
-5.27233e-05
-0.00103
-2.6849e-05
-0.00102467
-1.22206e-05
-0.00101723
-1.75934e-05
-0.000996979
-5.48696e-05
-0.000948853
-0.000137505
-0.000853746
-0.000278055
-0.000690723
-0.000482504
-0.000441036
-0.000744202
-9.43252e-05
-0.00103777
0.000341319
-0.0013006
0.000833124
-0.00146121
0.00131901
-0.00142381
0.00171442
-0.00112382
0.00192486
-0.000539847
0.00187801
0.00024715
0.00154762
0.00108774
0.000976048
0.00177658
0.00027137
0.00213114
-0.000410787
0.00203155
-0.000887749
0.00139598
-0.00106661
0.000498908
-0.000941922
-0.000424185
-0.000610607
-0.00105665
-0.000188763
-0.0013634
0.000229968
-0.00139524
0.000644457
-0.00142437
0.00106635
-0.00148418
0.00147153
-0.00145238
0.00181692
-0.0012836
0.00198146
-0.000704078
0.0017081
0.000651929
0.000678388
0.00283999
-0.00140368
0.00582993
-0.0050578
0.0103633
-0.0103487
0.0154553
-0.0158901
0.0168904
-0.0197987
0.0128627
-0.0225106
0.00965653
-0.0245008
0.00750677
-0.0240221
-0.000288535
-0.0217509
-0.00534848
-0.0258825
0.0145625
-0.0293707
0.0146847
-0.0264489
-0.00696292
0.0134612
-0.143188
0.0615056
-0.154204
0.0587634
0.0279992
0.0385387
0.0650119
0.0132283
0.0760387
0.00144084
0.0317819
0.00208717
-0.00284202
0.0140842
-0.0357284
0.0272542
-0.042224
0.0279928
0.000557856
0.0307898
-0.00911519
0.0306275
-0.00734167
0.0169112
0.031202
-0.00757579
0.0695662
-0.0292278
0.0687354
-0.0394361
0.0372081
-0.026591
-0.0396509
0.00316088
-0.0960033
0.017076
-0.0331415
0.0098118
0.0319936
0.0202093
-0.0324088
-0.0458595
0.0594563
0.0292152
-0.0587808
0.0602458
0.0303215
0.060399
0.031125
0.0592264
0.0311517
0.0564687
0.0301474
0.0523026
0.0281851
0.0471642
0.0255725
0.0415552
0.0226494
0.0359115
0.0196929
0.0305458
0.0168935
0.025641
0.01436
0.0212753
0.0121364
0.0174562
0.0102238
0.0141518
0.00859567
0.0113146
0.00722017
0.00888963
0.00605658
0.00682568
0.00507337
0.00507445
0.00423874
0.00359412
0.00352927
0.00234779
0.00292469
0.00130336
0.00240722
0.00043393
0.00196678
-0.000285179
0.00158854
-0.000875141
0.00126588
-0.00135364
0.000990277
-0.00173662
0.000756097
-0.00203785
0.000557321
-0.00226919
0.000389903
-0.00244088
0.000248997
-0.00256675
0.000131954
-0.00264552
3.05956e-05
-0.00269102
-4.94056e-05
-0.00270827
-0.00011556
-0.00270025
-0.000171939
-0.00267193
-0.000216282
-0.00262766
-0.000249831
-0.00257047
-0.000276215
-0.00250335
-0.000294986
-0.00242867
-0.000308068
-0.00234847
-0.00031611
-0.00226481
-0.00031882
-0.0021789
-0.000319192
-0.00209165
-0.000317639
-0.00200391
-0.000314307
-0.00191636
-0.000309612
-0.00182971
-0.00030332
-0.00174492
-0.000294277
-0.00166333
-0.000281081
-0.00158686
-0.000261709
-0.00151753
-0.000235819
-0.00145755
-0.000202613
-0.00140887
-0.000163007
-0.00137262
-0.000119739
-0.00134878
-7.65611e-05
-0.00133528
-4.03437e-05
-0.00132734
-2.01621e-05
-0.0013165
-2.8429e-05
-0.00128947
-8.18963e-05
-0.00122763
-0.000199351
-0.00110749
-0.000398192
-0.000903446
-0.000686554
-0.000592539
-0.00105511
-0.000161841
-0.00146847
0.00037995
-0.00184239
0.000994577
-0.00207583
0.00160868
-0.00203792
0.00212067
-0.00163581
0.00241373
-0.000832919
0.00239384
0.00026703
0.00201983
0.00146173
0.00133465
0.00246175
0.00046787
0.00299792
-0.000385718
0.00288514
-0.000995873
0.00200614
-0.00124148
0.000744533
-0.00111436
-0.000551295
-0.000732909
-0.00143808
-0.000244986
-0.00185131
0.000231099
-0.00187131
0.000694168
-0.00188743
0.00116
-0.00194999
0.00160143
-0.0018938
0.00196553
-0.00164769
0.00211219
-0.000850736
0.00172153
0.00104256
0.000357037
0.00420447
-0.00237497
0.00856192
-0.00710468
0.015093
-0.0137683
0.0221189
-0.020459
0.0235812
-0.0248701
0.0172737
-0.027785
0.0125714
-0.0298853
0.00960702
-0.029004
-0.00116972
-0.0258328
-0.00851971
-0.0301883
0.018918
-0.0328663
0.0173626
-0.0271785
-0.0126508
0.0127447
-0.183111
0.0665761
-0.208035
0.0717592
0.0228158
0.0494018
0.0873695
0.0177275
0.107713
0.00198145
0.047528
0.0022208
-0.0030815
0.016763
-0.0502705
0.0328418
-0.0583029
0.0344536
-0.00105378
0.0375222
-0.0121838
0.0350638
-0.00488335
0.0155064
0.0507594
-0.015204
0.100277
-0.0400912
0.0936226
-0.0499919
0.0471088
-0.0337972
-0.0558455
0.000348735
-0.130149
0.0181026
-0.0508954
0.0104876
0.0396086
0.0226556
-0.0445768
-0.0652082
0.0630971
0.0287226
-0.0626045
0.063746
0.0296726
0.0642706
0.0306004
0.0641798
0.0312424
0.0630437
0.0312834
0.0606615
0.0305674
0.0570889
0.0291451
0.0525636
0.0271746
0.0474118
0.0248447
0.041971
0.0223343
0.0365368
0.0197942
0.0313337
0.0173395
0.0265082
0.0150493
0.022137
0.0129669
0.0182462
0.011111
0.0148259
0.00947682
0.0118481
0.00805114
0.00927443
0.00681244
0.00706405
0.00573961
0.00517667
0.00481201
0.0035742
0.00400971
0.00222232
0.00331866
0.00108887
0.00272201
0.000145894
0.00220886
-0.000631953
0.00176816
-0.00126705
0.00139114
-0.00177911
0.00106944
-0.00218561
0.000796395
-0.00250174
0.000565156
-0.00274026
0.00037049
-0.00291763
0.000207963
-0.00303738
7.03504e-05
-0.00311037
-4.25763e-05
-0.0031477
-0.000134603
-0.00315186
-0.000212106
-0.00313006
-0.000271623
-0.00308708
-0.00031919
-0.00302736
-0.000354694
-0.00295452
-0.000380897
-0.00287161
-0.000399008
-0.0027817
-0.00040872
-0.00268673
-0.000414154
-0.00258821
-0.00041615
-0.00248751
-0.000414997
-0.00238575
-0.000411357
-0.00228401
-0.000405052
-0.00218364
-0.000394642
-0.00208639
-0.000378325
-0.00199468
-0.000353409
-0.00191107
-0.000319433
-0.0018383
-0.000275383
-0.00177882
-0.000222484
-0.00173407
-0.000164492
-0.00170404
-0.000106581
-0.00168627
-5.81199e-05
-0.00167491
-3.1517e-05
-0.00165973
-4.36103e-05
-0.00162468
-0.000116938
-0.00154745
-0.000276588
-0.00140004
-0.000545604
-0.00115203
-0.000934573
-0.000776124
-0.00143101
-0.000256575
-0.00198802
0.000397816
-0.00249678
0.00114421
-0.00282222
0.00189893
-0.00279264
0.00254398
-0.00228088
0.00293949
-0.00122843
0.00296684
0.000239662
0.0025653
0.00186326
0.00177329
0.00325375
0.000739662
0.00403155
-0.000299821
0.00392463
-0.00106449
0.00277082
-0.00139889
0.00107895
-0.00128867
-0.000661495
-0.000872104
-0.00185462
-0.000330707
-0.00239269
0.00019055
-0.00239254
0.000690058
-0.00238691
0.00118785
-0.00244777
0.00165252
-0.00235847
0.00201845
-0.00201362
0.00212616
-0.000958444
0.0015875
0.0015812
-0.000172821
0.00596476
-0.00367058
0.0120597
-0.00962143
0.0210439
-0.0177429
0.0302403
-0.0254969
0.0313352
-0.0302212
0.021998
-0.0332325
0.0155827
-0.0354054
0.0117799
-0.0340685
-0.00250664
-0.0298604
-0.0127279
-0.0340613
0.0231189
-0.0352405
0.0185418
-0.025341
-0.0225504
0.0108761
-0.219328
0.0675086
-0.264668
0.0845037
0.00582068
0.0617397
0.110134
0.0233069
0.146146
0.00293126
0.0679037
0.00226135
-0.00241177
0.0191386
-0.0671477
0.0385425
-0.077707
0.0412974
-0.00380854
0.0443514
-0.0152378
0.0386962
0.000771869
0.0122924
0.0771632
-0.0245485
0.137118
-0.0516352
0.120709
-0.0601571
0.0556307
-0.0405254
-0.0754772
-0.00269681
-0.167978
0.0185222
-0.0721143
0.0103468
0.0477839
0.0237732
-0.0580031
-0.0887302
0.0670926
0.0283195
-0.0666896
0.0675742
0.0291911
0.0680823
0.0300923
0.0683895
0.0309351
0.0681731
0.0314998
0.0671396
0.0316009
0.0651182
0.0311664
0.0620842
0.0302086
0.0581391
0.0287898
0.0534733
0.0270001
0.0483252
0.0249423
0.0429442
0.0227205
0.0375603
0.0204332
0.0323616
0.0181655
0.0274845
0.0159881
0.0230118
0.0139495
0.018983
0.0120799
0.0154046
0.0103909
0.0122619
0.00888232
0.00952768
0.00754615
0.00716832
0.00636908
0.00514836
0.00533861
0.00343149
0.0044389
0.00198338
0.00365698
0.000771843
0.00297977
-0.000232873
0.00239583
-0.00105761
0.00189425
-0.00172672
0.00146551
-0.00226177
0.00110023
-0.00268205
0.000790781
-0.0030036
0.000529509
-0.00324447
0.000311219
-0.00341653
0.000129489
-0.00352432
-2.68041e-05
-0.00358835
-0.000148072
-0.0036106
-0.000249359
-0.00359933
-0.000330456
-0.0035611
-0.000392914
-0.00350139
-0.000440599
-0.00342469
-0.000475695
-0.00333549
-0.000497903
-0.00323683
-0.000512797
-0.0031311
-0.000521878
-0.0030204
-0.000525679
-0.00290653
-0.000525224
-0.00279107
-0.000520501
-0.0026759
-0.000509807
-0.00256327
-0.00049094
-0.00245624
-0.000460439
-0.00235794
-0.000417723
-0.00227178
-0.000361551
-0.00220076
-0.000293502
-0.00214668
-0.000218568
-0.00210963
-0.000143634
-0.00208668
-8.10597e-05
-0.00207096
-4.72351e-05
-0.00205035
-6.42242e-05
-0.00200598
-0.000161309
-0.00191173
-0.000370838
-0.00173507
-0.000722271
-0.00144071
-0.00122894
-0.000996964
-0.00187476
-0.000384957
-0.00260002
0.00038706
-0.0032688
0.00127287
-0.00370803
0.00217993
-0.0036997
0.0029751
-0.00307606
0.003495
-0.00174835
0.0035944
0.000140251
0.00318757
0.00227008
0.00230159
0.00413972
0.00110054
0.0052326
-0.000137732
0.0051629
-0.00108267
0.00371577
-0.00153454
0.00153084
-0.00146781
-0.000728205
-0.00103713
-0.00228527
-0.000458577
-0.00297123
9.43967e-05
-0.0029455
0.00061868
-0.00291118
0.00113806
-0.00296714
0.00161413
-0.00283452
0.00196399
-0.00236349
0.00200775
-0.0010022
0.00128216
0.00230677
-0.000933946
0.00818084
-0.00533732
0.016463
-0.0126518
0.0283583
-0.0222725
0.039861
-0.0309246
0.0399874
-0.0357357
0.026809
-0.0387794
0.0186264
-0.0410438
0.0140444
-0.0392347
-0.00431578
-0.0338723
-0.0180903
-0.0374494
0.026696
-0.0365674
0.0176597
-0.0217271
-0.0373908
0.0082695
-0.249325
0.0651428
-0.321541
0.0965485
-0.0255853
0.0755497
0.131133
0.0301823
0.191513
0.00449999
0.093586
0.00223752
-0.000149435
0.0210882
-0.0859983
0.0443522
-0.100971
0.0485192
-0.0079754
0.0511386
-0.0178573
0.0413275
0.010583
0.00724889
0.111242
-0.0352008
0.179567
-0.0632442
0.148753
-0.0696031
0.0619897
-0.0468202
-0.0982601
-0.00622034
-0.208578
0.01835
-0.0966846
0.00941194
0.0567219
0.0234302
-0.0720214
-0.11631
0.0714007
0.027965
-0.0710462
0.0717798
0.0288119
0.0721905
0.0296816
0.0725549
0.0305707
0.0727069
0.0313478
0.0724305
0.0318773
0.0715202
0.0320767
0.0698257
0.031903
0.0672756
0.0313399
0.0638804
0.0303953
0.0597242
0.0290984
0.0549506
0.0274941
0.0497447
0.0256391
0.0443108
0.0235994
0.0388503
0.0214486
0.0335388
0.019261
0.0285129
0.0171058
0.0238647
0.0150391
0.0196458
0.0131012
0.0158751
0.0113167
0.012548
0.00969614
0.00964492
0.00824171
0.00713636
0.0069475
0.00498845
0.00580489
0.00316562
0.00480269
0.00163227
0.00392915
0.000354515
0.00317208
-0.000699253
0.00251929
-0.00155864
0.00195963
-0.00225023
0.00148238
-0.0027974
0.00107666
-0.00322078
0.000734592
-0.00354056
0.000449281
-0.00377738
0.000210028
-0.00392983
4.38628e-06
-0.0040287
-0.000150478
-0.00407501
-0.000284134
-0.00407928
-0.000388638
-0.00404964
-0.000470219
-0.00399276
-0.00053257
-0.00391509
-0.00057556
-0.00382127
-0.000606598
-0.00371494
-0.0006282
-0.00359932
-0.00064129
-0.00347711
-0.000647419
-0.00335069
-0.000646916
-0.0032226
-0.000637884
-0.00309577
-0.000617765
-0.00297397
-0.000582228
-0.00286109
-0.000530602
-0.00276124
-0.000461407
-0.00267811
-0.000376628
-0.00261395
-0.000282727
-0.00256897
-0.000188612
-0.00253988
-0.000110151
-0.00251871
-6.84037e-05
-0.00249145
-9.14773e-05
-0.00243641
-0.00021635
-0.00232369
-0.000483564
-0.00211624
-0.000929724
-0.00177399
-0.00157118
-0.00126084
-0.00238791
-0.000554435
-0.00330643
0.000338348
-0.00416158
0.00136946
-0.00473915
0.00243937
-0.00476962
0.00340169
-0.00403838
0.00407055
-0.00241722
0.00427093
-6.01433e-05
0.00388736
0.00265363
0.0029275
0.00509957
0.00156396
0.00659614
0.00011328
0.00661359
-0.00103894
0.004868
-0.00164407
0.00213599
-0.00165528
-0.000716978
-0.00123755
-0.00270298
-0.000641279
-0.00356748
-7.06443e-05
-0.00351611
0.000468821
-0.00345062
0.00100232
-0.00350062
0.0014796
-0.00331178
0.00179397
-0.00267785
0.00174237
-0.000950608
0.000779748
0.00326937
-0.00197841
0.010939
-0.00742231
0.0219069
-0.016229
0.037165
-0.0273307
0.0509627
-0.0366337
0.0492903
-0.0412972
0.0314725
-0.0443859
0.021715
-0.0468217
0.0164802
-0.0445757
-0.00656185
-0.0379653
-0.0247008
-0.0403566
0.0290872
-0.0371001
0.0144032
-0.0177451
-0.0567459
0.00570138
-0.272771
0.0612925
-0.377132
0.107415
-0.0717083
0.0907775
0.147771
0.0385737
0.243717
0.00692377
0.125236
0.0022822
0.00449194
0.0225852
-0.106301
0.0502571
-0.128643
0.0561114
-0.0138296
0.0577372
-0.0194832
0.0427619
0.0255584
0.000330682
0.153673
-0.0466678
0.226566
-0.0743798
0.176465
-0.0783341
0.0659439
-0.0529211
-0.123673
-0.0102523
-0.251246
0.0175921
-0.124529
0.00782193
0.066492
0.0216852
-0.0858846
-0.147398
0.0760218
0.0276438
-0.0757006
0.076347
0.0284867
0.0766831
0.0293455
0.0770054
0.0302484
0.0772444
0.0311089
0.0772852
0.0318365
0.0769846
0.0323772
0.0761947
0.0326929
0.074786
0.0327486
0.0726648
0.0325164
0.0697839
0.0319794
0.066148
0.03113
0.0618164
0.0299708
0.0569004
0.0285153
0.051556
0.026793
0.045967
0.02485
0.0403244
0.0227483
0.0348041
0.0205594
0.0295498
0.0183554
0.0246651
0.0162014
0.020213
0.0141482
0.0162227
0.012232
0.0126969
0.0104734
0.00961968
0.00888204
0.00696399
0.00745847
0.00469554
0.00619758
0.00277725
0.00509042
0.00117109
0.00412545
-0.000159852
0.00329056
-0.00124912
0.00257164
-0.00213043
0.00195796
-0.00283189
0.00143606
-0.00338017
0.000997566
-0.00379641
0.000626275
-0.00411176
0.000319752
-0.00432454
6.23091e-05
-0.00446501
-0.000143654
-0.00454314
-0.000310495
-0.00456884
-0.000444507
-0.00455207
-0.000549331
-0.00450227
-0.000625345
-0.00442634
-0.00068251
-0.00432972
-0.00072481
-0.00421723
-0.000753768
-0.00409293
-0.00077171
-0.00396027
-0.000779568
-0.00382275
-0.0007754
-0.00368412
-0.000756386
-0.00354909
-0.000717247
-0.00342242
-0.000657273
-0.00330906
-0.000574761
-0.00321355
-0.000472139
-0.00313868
-0.000357603
-0.00308488
-0.000242403
-0.00304857
-0.000146465
-0.00302075
-9.62216e-05
-0.00298558
-0.000126644
-0.0029186
-0.000283332