/*--------------------------------*- C++ -*----------------------------------*\
| =========                 |                                                 |
| \\      /  F ield         | OpenFOAM: The Open Source CFD Toolbox           |
|  \\    /   O peration     | Version:  2412                                  |
|   \\  /    A nd           | Website:  www.openfoam.com                      |
|    \\/     M anipulation  |                                                 |
\*---------------------------------------------------------------------------*/
FoamFile
{
    version     2.0;
    format      ascii;
    arch        "LSB;label=32;scalar=64";
    class       volVectorField;
    location    "1.17";
    object      U;
}
// * * * * * * * * * * * * * * * * * * * * * * * * * * * * * * * * * * * * * //

dimensions      [0 1 -1 0 0 0 0];

internalField   nonuniform List<vector> 
12600
(
(19.5301 0 -0.663038)
(7.8873 -3.72554e-20 -1.62955)
(3.32473 -1.69649e-20 -1.68008)
(1.68083 0 -1.23553)
(1.05213 -2.34657e-22 -0.819684)
(0.717906 0 -0.552663)
(0.494328 -3.13981e-20 -0.382695)
(0.333085 0 -0.266257)
(0.213308 0 -0.181658)
(0.122701 0 -0.118267)
(0.0524932 0 -0.0707374)
(-0.00218373 -9.93348e-20 -0.0337952)
(-0.0447286 -1.01471e-19 -0.00466812)
(-0.0782202 0 0.018757)
(-0.104396 2.05787e-19 0.0361586)
(-0.1239 0 0.0505384)
(-0.139124 2.94553e-22 0.0617726)
(-0.150128 0 0.0703073)
(-0.15816 9.92665e-20 0.0767157)
(-0.163349 0 0.0813168)
(-0.166367 0 0.0844576)
(-0.167466 0 0.086292)
(-0.166976 3.64972e-19 0.0872189)
(-0.165195 -3.55373e-19 0.0873907)
(-0.162399 -1.32023e-22 0.0867856)
(-0.158927 1.67929e-19 0.0855363)
(-0.154648 0 0.0838726)
(-0.14978 0 0.0818807)
(-0.144665 0 0.0795537)
(-0.139312 -2.93874e-19 0.0769635)
(-0.133781 -5.67174e-19 0.0742111)
(-0.12815 0 0.0713418)
(-0.122489 0 0.0684033)
(-0.116825 -2.53958e-19 0.0654193)
(-0.111183 -2.44439e-19 0.0624137)
(-0.105635 0 0.0594312)
(-0.100192 0 0.0564804)
(-0.0948755 -4.34568e-19 0.0535777)
(-0.0897203 0 0.0507455)
(-0.084723 6.48896e-23 0.0479797)
(-0.0799226 -3.84738e-19 0.0453086)
(-0.0753151 -3.69161e-19 0.0427405)
(-0.0708822 0 0.0402647)
(-0.0666298 -3.39406e-19 0.037883)
(-0.0625481 -3.25245e-19 0.0355921)
(-0.0586311 6.23181e-19 0.0333908)
(-0.0548877 -5.96826e-19 0.0312866)
(-0.051341 0 0.0292933)
(-0.0480418 5.46711e-19 0.0274406)
(-0.0450498 -5.22973e-19 0.0257611)
(-0.042424 0 0.0242891)
(-0.0402352 -1.11066e-23 0.0230642)
(-0.038519 4.56953e-19 0.0221067)
(-0.037289 0 0.0214233)
(-0.0365135 -8.3418e-19 0.0209792)
(-0.0360702 0 0.020715)
(-0.0357415 0 0.0205162)
(-0.0351767 1.79715e-23 0.0201857)
(-0.033863 1.88507e-23 0.0194028)
(-0.0311077 6.6104e-19 0.017767)
(-0.0260534 -6.30531e-19 0.0148217)
(-0.0179084 1.20225e-18 0.0101348)
(-0.00602614 0 0.00347201)
(0.00945296 1.08989e-18 -0.00523987)
(0.0274218 1.03556e-18 -0.0153865)
(0.045471 -1.9645e-18 -0.02562)
(0.0602709 9.30265e-19 -0.0340871)
(0.0681641 0 -0.0386928)
(0.0662614 0 -0.0376859)
(0.0541593 0 -0.0307625)
(0.0331376 0 -0.0190594)
(0.00777003 0 -0.00488236)
(-0.0180163 -1.3608e-18 0.00969632)
(-0.0376788 1.30003e-18 0.0208862)
(-0.0475605 0 0.0264749)
(-0.0462892 0 0.0256334)
(-0.0357387 1.13677e-18 0.0196218)
(-0.0200112 -1.43411e-22 0.010601)
(-0.00186655 2.06691e-18 0.000406847)
(0.0166307 0 -0.00980107)
(0.0371251 0 -0.0208248)
(0.0577419 0 -0.0321648)
(0.0776553 4.28023e-22 -0.0431902)
(0.0936895 0 -0.0517935)
(0.0991761 0 -0.0544324)
(0.0864277 1.2656e-18 -0.0471135)
(0.0552629 5.89881e-22 -0.028914)
(-0.00140195 0 0.00437635)
(-0.104188 0 0.0638514)
(-0.243337 -1.75646e-18 0.143512)
(-0.380955 -1.62499e-18 0.221108)
(-0.47357 -1.54387e-18 0.271276)
(-0.578632 -1.50701e-18 0.329545)
(-0.624363 -1.55252e-21 0.354646)
(-0.599815 -1.59812e-21 0.3393)
(-0.592008 1.58946e-18 0.332216)
(-0.846531 0 0.477804)
(-0.893473 0 0.502625)
(-0.638621 0 0.348156)
(1.62013 7.20423e-18 -0.92199)
(1.41352 -2.78322e-18 -0.798841)
(0.945942 2.52735e-18 -0.531828)
(0.406275 1.91051e-18 -0.224136)
(0.00299133 0 -0.00387031)
(0.096159 0 -0.0508725)
(0.0474432 0 -0.0295568)
(0.484338 3.11074e-18 -0.274934)
(0.538326 0 -0.30387)
(0.418518 -2.27476e-18 -0.239864)
(0.585426 0 -0.33227)
(0.682993 0 -0.3843)
(0.51385 1.19781e-18 -0.280008)
(0.165626 0 -0.0778688)
(-0.152263 0 0.101306)
(-0.203855 0 0.131773)
(0.311147 4.68504e-19 -0.156791)
(0.634588 0 -0.350139)
(0.160453 -1.38068e-18 -0.0945259)
(0.0397871 0 -0.0277992)
(0.412723 -2.23428e-22 -0.23664)
(31.1295 -1.56381e-20 -1.01881)
(21.6905 2.13294e-20 -3.42324)
(13.7318 1.35463e-20 -4.31584)
(8.68299 0 -3.73748)
(5.77254 -1.30951e-20 -2.81216)
(4.01804 2.37324e-20 -2.05509)
(2.88078 3.27531e-20 -1.50365)
(2.08889 -3.80567e-20 -1.10073)
(1.50856 0 -0.798411)
(1.06926 0 -0.566266)
(0.7294 0 -0.385905)
(0.463154 0 -0.2433)
(0.252592 0 -0.129492)
(0.0832351 0 -0.0379624)
(-0.0503818 -7.3827e-22 0.0363211)
(-0.156304 0 0.0947208)
(-0.241915 1.06063e-19 0.141206)
(-0.308461 0 0.178205)
(-0.360615 -2.06252e-19 0.207123)
(-0.399994 2.02338e-19 0.229075)
(-0.429127 0 0.245385)
(-0.449323 1.9383e-19 0.256754)
(-0.462313 -1.89511e-19 0.263809)
(-0.469471 1.84443e-19 0.267392)
(-0.471592 -1.79067e-19 0.268005)
(-0.46946 0 0.26663)
(-0.463569 1.68378e-19 0.26362)
(-0.455019 0 0.258729)
(-0.444459 0 0.252541)
(-0.432093 0 0.245475)
(-0.41837 2.93265e-19 0.237686)
(-0.403667 0 0.229364)
(-0.388286 0 0.220667)
(-0.372412 0 0.211687)
(-0.356202 0 0.202527)
(-0.339935 0 0.193343)
(-0.323715 0 0.184173)
(-0.307649 4.47117e-19 0.175092)
(-0.291889 0 0.166174)
(-0.276457 8.23321e-19 0.157433)
(-0.261496 7.89497e-19 0.14896)
(-0.247043 3.78329e-19 0.140769)
(-0.23306 0 0.132839)
(-0.219575 0 0.125185)
(-0.206577 6.6484e-19 0.117802)
(-0.19406 -6.36307e-19 0.110689)
(-0.182065 6.08643e-19 0.103878)
(-0.170674 0 0.0974184)
(-0.160053 -5.56324e-19 0.0914125)
(-0.150397 0 0.08597)
(-0.141902 0 0.0812048)
(-0.134795 -4.84853e-19 0.0772436)
(-0.129194 0 0.0741488)
(-0.125141 0 0.0719373)
(-0.122512 8.42816e-19 0.0705138)
(-0.120913 0 0.0696474)
(-0.119653 0 0.0689167)
(-0.117609 3.01336e-23 0.0676426)
(-0.113094 6.96323e-19 0.0648276)
(-0.103883 -3.2426e-23 0.0591716)
(-0.0872836 0 0.0491604)
(-0.0607796 -1.20321e-18 0.0334402)
(-0.0224757 -1.14462e-18 0.0110868)
(0.0273118 0 -0.0178208)
(0.0851769 -2.06394e-18 -0.0512263)
(0.143701 -8.71555e-23 -0.0846924)
(0.192515 0 -0.112232)
(0.219988 8.73561e-19 -0.127182)
(0.216648 0 -0.123934)
(0.180345 0 -0.10169)
(0.114807 0 -0.0635908)
(0.0342204 0 -0.0171846)
(-0.0485181 2.67974e-18 0.0301611)
(-0.111871 -1.27782e-18 0.0658892)
(-0.143219 0 0.0830649)
(-0.138537 0 0.0792131)
(-0.104631 1.11216e-18 0.0588524)
(-0.0550989 -2.28848e-22 0.0297724)
(7.14851e-05 -1.32675e-22 -0.00212983)
(0.0546396 0 -0.0334422)
(0.113294 0 -0.067019)
(0.171484 0 -0.10059)
(0.226987 6.51508e-22 -0.132592)
(0.270242 -1.45435e-18 -0.157013)
(0.282177 1.33633e-18 -0.162868)
(0.237269 -1.22284e-18 -0.135174)
(0.130061 8.97278e-22 -0.0712889)
(-0.0624938 -1.01676e-18 0.0431226)
(-0.402915 0 0.243228)
(-0.856881 1.68827e-18 0.506379)
(-1.29031 0 0.753962)
(-1.55817 1.4803e-18 0.905491)
(-1.8553 0 1.07637)
(-1.96974 -2.91837e-18 1.13782)
(-1.86485 -1.48015e-18 1.07616)
(-1.77223 0 1.03352)
(-2.59683 0 1.5095)
(-2.66724 -3.29973e-18 1.53816)
(-1.98023 3.60296e-18 1.05025)
(5.10978 -6.85353e-18 -3.01726)
(4.46067 2.64329e-18 -2.54664)
(2.9493 -2.39815e-18 -1.67353)
(1.26082 0 -0.691642)
(0.0492188 1.8818e-18 -0.0201444)
(0.197691 0 -0.117375)
(0.189084 0 -0.120134)
(1.50999 -2.9428e-18 -0.888857)
(1.63039 0 -0.938871)
(1.36741 -6.55934e-22 -0.79165)
(1.81332 1.90954e-18 -1.0552)
(1.96867 0 -1.14004)
(1.26087 0 -0.719074)
(0.095571 0 -0.0423569)
(-0.885927 3.44704e-19 0.515868)
(-1.09772 -2.24402e-19 0.612697)
(0.407737 -4.40437e-19 -0.27102)
(1.65368 0 -0.960083)
(0.584782 1.2968e-18 -0.321071)
(0.22927 0 -0.138268)
(1.34402 -1.86895e-18 -0.784479)
(34.7384 3.33663e-20 -0.8834)
(30.1385 -8.97336e-21 -3.00306)
(23.524 -4.00362e-21 -4.72173)
(17.2689 0 -5.09234)
(12.4331 -1.53621e-20 -4.55271)
(9.03166 5.91729e-22 -3.72177)
(6.67045 0 -2.93026)
(4.98348 3.61212e-20 -2.2699)
(3.73571 0 -1.73817)
(2.78657 4.35545e-20 -1.31172)
(2.04945 0 -0.968091)
(1.46781 0 -0.689915)
(1.00385 0 -0.46369)
(0.629465 0 -0.279443)
(0.329792 -1.00891e-19 -0.125401)
(0.0862199 0 -0.00317095)
(-0.110639 0 0.0974553)
(-0.268308 0 0.178294)
(-0.394985 9.76955e-20 0.243418)
(-0.494546 -5.43951e-22 0.295011)
(-0.571997 0 0.335291)
(-0.630569 -4.06827e-22 0.365728)
(-0.673465 0 0.387736)
(-0.703307 -1.74347e-19 0.402737)
(-0.721727 0 0.411899)
(-0.73121 0 0.415704)
(-0.733038 -1.59713e-19 0.415452)
(-0.728712 0 0.411438)
(-0.718968 0 0.405187)
(-0.705052 -2.87786e-19 0.39665)
(-0.687731 0 0.386524)
(-0.667799 0 0.37511)
(-0.64591 0 0.3627)
(-0.622504 0 0.349486)
(-0.597943 2.38633e-19 0.335705)
(-0.572775 0 0.321642)
(-0.547271 0 0.307391)
(-0.521665 -4.23295e-19 0.293117)
(-0.49627 0 0.278958)
(-0.471175 -7.7952e-19 0.264977)
(-0.446655 -7.6365e-23 0.251338)
(-0.422822 -3.58182e-19 0.238057)
(-0.399645 0 0.225126)
(-0.377194 0 0.212585)
(-0.355472 -3.14543e-19 0.200438)
(-0.334492 0 0.188699)
(-0.314334 -5.75751e-19 0.177432)
(-0.295149 0 0.166735)
(-0.277219 3.60799e-23 0.156788)
(-0.260882 0 0.147781)
(-0.246472 0 0.139908)
(-0.234375 0 0.133378)
(-0.224798 -4.37303e-19 0.128287)
(-0.217807 0 0.12465)
(-0.21318 0 0.122306)
(-0.210262 0 0.120822)
(-0.207896 0 0.119422)
(-0.204183 1.37926e-18 0.116921)
(-0.196258 0 0.111655)
(-0.180395 -2.60472e-23 0.101451)
(-0.152119 0 0.0837764)
(-0.107247 5.6734e-19 0.0564621)
(-0.0427232 1.07921e-18 0.0179218)
(0.041116 0 -0.0313062)
(0.138733 1.94518e-18 -0.087719)
(0.238082 9.20998e-19 -0.143864)
(0.322131 0 -0.189885)
(0.371459 -8.22679e-19 -0.214913)
(0.369839 0 -0.209661)
(0.312653 0 -0.172759)
(0.205283 0 -0.109216)
(0.0708626 0 -0.0315906)
(-0.0685044 -1.16176e-22 0.0471484)
(-0.175883 1.20168e-18 0.105617)
(-0.228945 0 0.132581)
(-0.221372 0 0.124272)
(-0.165285 -2.34689e-22 0.0891612)
(-0.0838762 -1.99263e-18 0.0411604)
(0.0047461 -9.47157e-19 -0.00958126)
(0.0904858 0 -0.0581034)
(0.180854 0 -0.109262)
(0.269529 0 -0.159349)
(0.353145 -2.95277e-18 -0.206248)
(0.416529 -6.72417e-22 -0.240615)
(0.430555 -1.25358e-18 -0.245107)
(0.350879 0 -0.192004)
(0.162313 -1.04789e-18 -0.0756979)
(-0.174927 9.53211e-19 0.129078)
(-0.761019 0 0.47819)
(-1.53263 0 0.92521)
(-2.24762 1.46234e-18 1.32625)
(-2.66027 0 1.55282)
(-3.11002 1.34801e-18 1.80404)
(-3.26015 1.88976e-21 1.87441)
(-3.05381 1.38167e-18 1.7465)
(-2.82768 -1.41341e-18 1.64685)
(-4.20418 0 2.43974)
(-4.18881 3.08804e-18 2.38567)
(-3.31387 -3.37136e-18 1.59766)
(8.28222 6.41719e-18 -4.99471)
(7.4248 0 -4.16871)
(4.94131 -2.25228e-18 -2.72476)
(2.12119 0 -1.09952)
(0.126255 -1.75962e-18 -0.0428344)
(0.216634 1.53669e-18 -0.124924)
(0.35166 0 -0.24602)
(2.47163 2.75079e-18 -1.47159)
(2.63796 0 -1.50315)
(2.321 4.01455e-18 -1.34336)
(2.96153 -1.7844e-18 -1.71912)
(3.02782 0 -1.71903)
(1.65952 0 -0.876515)
(-0.331616 0 0.279477)
(-1.90425 3.28003e-21 1.15134)
(-2.25378 2.09609e-19 1.27462)
(0.112514 3.93257e-19 -0.122428)
(2.3346 0 -1.33515)
(1.00692 1.21242e-18 -0.539477)
(0.445244 0 -0.286431)
(2.2642 2.9212e-22 -1.33207)
(35.3433 -1.75596e-20 -1.08102)
(34.0496 -5.07045e-21 -2.33639)
(30.2139 7.48331e-21 -4.129)
(25.0479 -1.53551e-20 -5.27833)
(19.85 -2.15969e-20 -5.48299)
(15.3907 -4.51139e-20 -5.03265)
(11.8652 0 -4.30888)
(9.15729 0 -3.54953)
(7.07582 0 -2.85656)
(5.45697 -4.12561e-20 -2.2584)
(4.18096 0 -1.75347)
(3.16294 0 -1.33084)
(2.34308 0 -0.978078)
(1.67686 0 -0.684424)
(1.13522 0 -0.437778)
(0.692399 -9.45461e-20 -0.23523)
(0.330746 9.40719e-20 -0.065426)
(0.03534 0 0.0728706)
(-0.20492 0 0.186739)
(-0.398549 -1.8137e-19 0.278889)
(-0.553481 1.77328e-19 0.352987)
(-0.675353 -1.73809e-19 0.41124)
(-0.769149 1.69238e-19 0.456484)
(-0.839712 1.65095e-19 0.490474)
(-0.890492 -1.60196e-19 0.514883)
(-0.925143 1.55456e-19 0.53056)
(-0.945487 0 0.539457)
(-0.954788 -1.45721e-19 0.54109)
(-0.954895 0 0.537465)
(-0.946583 2.72377e-19 0.530967)
(-0.931788 0 0.521269)
(-0.911821 0 0.509176)
(-0.887797 0 0.495156)
(-0.860546 -2.34594e-19 0.479516)
(-0.830731 -2.25737e-19 0.462666)
(-0.799245 0 0.445056)
(-0.766612 0 0.426862)
(-0.733256 4.00275e-19 0.408364)
(-0.699703 0 0.389788)
(-0.666168 9.53858e-23 0.37126)
(-0.633083 -3.53205e-19 0.353031)
(-0.600677 0 0.335146)
(-0.568959 0 0.317621)
(-0.538063 0 0.300534)
(-0.508036 0 0.283909)
(-0.478926 -5.6845e-19 0.267787)
(-0.45087 0 0.252275)
(-0.424092 5.19689e-19 0.237531)
(-0.398998 4.9663e-19 0.22382)
(-0.376074 0 0.211412)
(-0.355795 0 0.200588)
(-0.338706 0 0.191631)
(-0.325107 4.12577e-19 0.184665)
(-0.315089 -3.93577e-19 0.179691)
(-0.308347 -7.50706e-19 0.176444)
(-0.303953 0 0.174287)
(-0.300274 -6.82164e-19 0.172087)
(-0.294638 -1.30002e-18 0.168143)
(-0.283065 0 0.160056)
(-0.260384 -1.17943e-18 0.144774)
(-0.220418 0 0.118816)
(-0.157419 -5.34301e-19 0.079247)
(-0.0671356 -1.01618e-18 0.0241209)
(0.0500363 0 -0.045583)
(0.186683 -9.15479e-19 -0.124878)
(0.326616 -8.66873e-19 -0.203399)
(0.446705 0 -0.267618)
(0.520207 0 -0.302616)
(0.523987 0 -0.295715)
(0.4503 6.91528e-19 -0.244555)
(0.304986 6.55248e-19 -0.156233)
(0.11919 0 -0.0482682)
(-0.0755193 -1.18416e-18 0.0609171)
(-0.226705 -1.1286e-18 0.140972)
(-0.301977 0 0.176442)
(-0.292786 0 0.162999)
(-0.216691 -9.81091e-19 0.113654)
(-0.106661 2.01955e-22 0.0480111)
(0.0105073 0 -0.0190944)
(0.121264 0 -0.0818293)
(0.23602 0 -0.146662)
(0.347108 0 -0.209364)
(0.450561 -5.94812e-22 -0.2671)
(0.526695 1.28008e-18 -0.30688)
(0.538696 0 -0.305799)
(0.420877 0 -0.224485)
(0.145119 0 -0.0500988)
(-0.346128 8.94567e-19 0.254626)
(-1.18496 0 0.761617)
(-2.27077 1.48459e-18 1.39194)
(-3.24053 -1.36941e-18 1.92843)
(-3.75744 1.2968e-18 2.20526)
(-4.31314 -1.26195e-18 2.51225)
(-4.46423 2.55045e-18 2.56689)
(-4.13477 -1.29307e-18 2.35809)
(-3.73292 1.32258e-18 2.19985)
(-5.61096 0 3.28304)
(-5.36667 0 3.05517)
(-4.53334 -3.14018e-18 2.00117)
(10.8111 -3.00191e-18 -6.70967)
(10.2149 -2.32729e-18 -5.69445)
(6.9336 -4.6536e-21 -3.75797)
(3.00642 0 -1.49137)
(0.23384 0 -0.0631176)
(0.165497 -1.43635e-18 -0.103902)
(0.527809 0 -0.394684)
(3.34232 -2.57374e-18 -2.02626)
(3.55277 0 -2.02872)
(3.26019 5.99574e-22 -1.89226)
(4.00207 0 -2.33317)
(3.81823 -1.40843e-18 -2.15387)
(1.6789 1.00389e-18 -0.82931)
(-1.10899 6.17252e-19 0.785244)
(-3.15332 3.73279e-21 1.89696)
(-3.55786 0 1.97108)
(-0.462593 -3.67255e-19 0.0988779)
(2.68737 -1.04839e-18 -1.57316)
(1.39159 -1.13211e-18 -0.725958)
(0.633742 0 -0.417169)
(3.13474 3.44269e-22 -1.86441)
(34.9766 0 -1.56995)
(35.1085 -3.71058e-21 -2.12531)
(33.6226 0 -3.45391)
(30.4928 1.45074e-20 -4.78664)
(26.354 3.41364e-20 -5.57148)
(21.9722 2.19558e-20 -5.70213)
(17.9049 0 -5.3456)
(14.4062 0 -4.72903)
(11.5094 -3.5514e-20 -4.02725)
(9.14753 -3.83809e-20 -3.34007)
(7.22791 4.06061e-20 -2.71224)
(5.66386 8.44995e-20 -2.15809)
(4.38427 8.67787e-20 -1.67766)
(3.33215 0 -1.2659)
(2.46579 0 -0.9132)
(1.75044 1.78388e-19 -0.615902)
(1.15932 -3.602e-22 -0.364034)
(0.671443 0 -0.153607)
(0.269582 -8.66475e-20 0.0225031)
(-0.0596973 -1.70497e-19 0.16785)
(-0.327852 -1.6765e-19 0.287289)
(-0.544199 0 0.383569)
(-0.716185 -1.59985e-19 0.460709)
(-0.851205 1.55506e-19 0.520996)
(-0.954387 1.51419e-19 0.566881)
(-1.03053 -2.68572e-22 0.60103)
(-1.08426 0 0.625062)
(-1.11968 1.9528e-22 0.639293)
(-1.13919 0 0.644789)
(-1.14613 2.56934e-19 0.642591)
(-1.14167 0 0.636762)
(-1.12822 0 0.626952)
(-1.10764 0 0.613839)
(-1.08125 2.21576e-19 0.597991)
(-1.05014 0 0.580005)
(-1.01565 0 0.560533)
(-0.978656 0 0.539853)
(-0.93986 0 0.518396)
(-0.900064 -3.62395e-19 0.496492)
(-0.859673 6.95236e-19 0.474356)
(-0.819318 0 0.452352)
(-0.779397 3.19262e-19 0.430558)
(-0.740004 0 0.409033)
(-0.701366 0 0.387906)
(-0.663604 0 0.367238)
(-0.626828 6.8191e-23 0.347108)
(-0.591244 0 0.327683)
(-0.557167 -4.90014e-19 0.309188)
(-0.52513 0 0.291983)
(-0.495773 0 0.276422)
(-0.469718 -4.26846e-19 0.262871)
(-0.447666 0 0.251683)
(-0.430019 0 0.243001)
(-0.416895 1.19462e-23 0.2368)
(-0.407903 7.07075e-19 0.232699)
(-0.401852 0 0.22983)
(-0.396638 2.27304e-23 0.226684)
(-0.388843 1.2238e-18 0.22101)
(-0.373401 0 0.209691)
(-0.343774 5.54958e-19 0.188813)
(-0.292192 0 0.154008)
(-0.211452 5.02644e-19 0.101672)
(-0.0961881 9.55806e-19 0.0296342)
(0.0532101 0 -0.0605469)
(0.227789 8.60859e-19 -0.162325)
(0.407778 -8.13259e-23 -0.262572)
(0.564632 0 -0.344353)
(0.664798 0 -0.389023)
(0.678092 0 -0.380912)
(0.592845 -1.29927e-18 -0.316523)
(0.414311 1.7097e-23 -0.204627)
(0.180451 0 -0.0675841)
(-0.0679364 1.11149e-18 0.0705432)
(-0.262973 2.11858e-18 0.170458)
(-0.36176 0 0.212984)
(-0.353396 0 0.194005)
(-0.260739 0 0.131407)
(-0.126143 1.94583e-22 0.0503774)
(0.0143145 0 -0.029605)
(0.143998 0 -0.10268)
(0.276213 0 -0.176908)
(0.402682 0 -0.247486)
(0.519021 1.29836e-18 -0.311035)
(0.601468 1.20088e-18 -0.351252)
(0.607652 0 -0.340353)
(0.449439 0 -0.226457)
(0.0809544 0 0.0125924)
(-0.573978 7.65329e-22 0.427576)
(-1.67185 0 1.09972)
(-3.06264 -1.38979e-18 1.90655)
(-4.25072 0 2.54982)
(-4.82687 -1.21365e-18 2.84559)
(-5.44741 0 3.1788)
(-5.56907 -1.19214e-18 3.19185)
(-5.10077 0 2.88563)
(-4.49645 0 2.66839)
(-6.79652 0 3.99139)
(-6.16454 0 3.48205)
(-5.43768 2.9363e-18 2.12678)
(12.3317 0 -7.94093)
(12.7488 2.17563e-18 -7.04427)
(8.96144 1.97278e-18 -4.75013)
(3.95607 0 -1.86444)
(0.373246 0 -0.079456)
(0.0784624 0 -0.0562217)
(0.69601 0 -0.561008)
(4.11357 -1.5996e-21 -2.53722)
(4.39397 0 -2.50008)
(4.17037 -3.50621e-18 -2.42446)
(4.93288 0 -2.87081)
(4.35762 2.63496e-18 -2.39725)
(1.37791 -9.37601e-19 -0.531469)
(-2.13607 -5.76459e-19 1.49032)
(-4.50384 -2.87204e-19 2.73533)
(-4.83255 0 2.66129)
(-1.11432 0 0.369593)
(2.79931 1.95235e-18 -1.65969)
(1.71373 -1.05878e-18 -0.87388)
(0.725386 -7.70044e-19 -0.510065)
(3.91437 7.59836e-19 -2.35546)
(34.5139 0 -2.03125)
(34.9263 3.38993e-20 -2.25531)
(34.7392 0 -3.0468)
(33.3916 0 -4.14906)
(30.853 0 -5.13567)
(27.4881 0 -5.71839)
(23.7739 0 -5.82937)
(20.1045 3.07802e-20 -5.55523)
(16.7269 3.351e-20 -5.03754)
(13.7531 7.23179e-20 -4.40451)
(11.202 -7.6435e-20 -3.74539)
(9.04313 -7.9755e-20 -3.11204)
(7.22799 -8.19112e-20 -2.52976)
(5.7053 0 -2.00889)
(4.43012 0 -1.549)
(3.36278 -1.67646e-19 -1.15002)
(2.46999 -1.66933e-19 -0.805307)
(1.72447 0 -0.51104)
(1.10316 8.1792e-20 -0.260861)
(0.5877 1.60938e-19 -0.0500482)
(0.16162 0 0.126089)
(-0.187657 1.54036e-19 0.27176)
(-0.471286 0 0.390807)
(-0.699597 -2.75478e-22 0.486893)
(-0.880245 -1.4242e-19 0.562961)
(-1.02057 -2.3369e-22 0.621744)
(-1.12669 0 0.665608)
(-1.20344 1.29751e-19 0.697628)
(-1.25617 -2.50694e-19 0.718976)
(-1.28876 -4.84582e-19 0.729177)
(-1.30484 -2.33685e-19 0.729564)
(-1.30661 0 0.724973)
(-1.2966 -2.16915e-19 0.715796)
(-1.27713 0 0.702248)
(-1.24983 0 0.685351)
(-1.21661 0 0.665968)
(-1.17887 0 0.644501)
(-1.13764 0 0.62156)
(-1.09412 1.07901e-22 0.59761)
(-1.04896 -3.2761e-19 0.572974)
(-1.00306 0 0.548155)
(-0.957049 -6.01655e-19 0.523278)
(-0.911156 0 0.498463)
(-0.865744 0 0.473907)
(-0.821044 0 0.449723)
(-0.777256 5.04941e-19 0.426045)
(-0.73468 0 0.403112)
(-0.693736 0 0.381229)
(-0.655091 0 0.360861)
(-0.619547 0 0.342448)
(-0.587874 8.03572e-19 0.326443)
(-0.560939 0 0.313262)
(-0.539244 0 0.303059)
(-0.522942 3.48848e-19 0.29577)
(-0.511561 0 0.290876)
(-0.50366 0 0.287255)
(-0.496678 1.20812e-18 0.283)
(-0.486481 -5.754e-19 0.275297)
(-0.466978 0 0.260304)
(-0.430354 0 0.233284)
(-0.367371 0 0.18907)
(-0.269496 -4.72341e-19 0.123524)
(-0.130352 0 0.0343751)
(0.0497662 0 -0.0760932)
(0.260717 -1.61733e-18 -0.199764)
(0.479783 1.53096e-18 -0.320935)
(0.673789 0 -0.419588)
(0.803039 0 -0.473727)
(0.830371 0 -0.464921)
(0.739444 6.09756e-19 -0.38828)
(0.533421 -5.77527e-19 -0.25428)
(0.25576 -1.09645e-18 -0.0897553)
(-0.0440122 -1.04271e-18 0.0756409)
(-0.282834 -9.93482e-19 0.193849)
(-0.406974 9.47039e-19 0.242567)
(-0.403028 0 0.218321)
(-0.298535 0 0.143972)
(-0.144516 8.21893e-19 0.0501255)
(0.0133565 0 -0.0391706)
(0.155786 0 -0.118813)
(0.298902 0 -0.198551)
(0.434102 0 -0.273197)
(0.556703 0 -0.338784)
(0.639205 -2.25001e-18 -0.375596)
(0.635783 0 -0.351185)
(0.435033 -9.46234e-19 -0.200173)
(-0.0317345 0 0.111112)
(-0.859949 7.63327e-22 0.647725)
(-2.22025 1.42679e-18 1.49163)
(-3.89774 0 2.46257)
(-5.25487 0 3.17605)
(-5.84074 0 3.45736)
(-6.48868 0 3.79458)
(-6.5548 1.11093e-18 3.74785)
(-5.93789 0 3.33331)
(-5.11148 0 3.06408)
(-7.72177 0 4.55747)
(-6.53562 0 3.66674)
(-5.73371 0 1.84328)
(12.5124 0 -8.50277)
(14.8783 0 -8.18887)
(11.0051 0 -5.71567)
(4.99331 -1.39278e-18 -2.23393)
(0.551409 0 -0.0896859)
(-0.0201964 0 -0.00765573)
(0.831625 0 -0.729728)
(4.77243 2.24785e-18 -3.00449)
(5.15891 0 -2.93991)
(5.03459 1.63768e-18 -2.93296)
(5.73535 0 -3.33163)
(4.6302 4.15324e-21 -2.47371)
(0.77057 0 -0.0416622)
(-3.34973 5.47124e-19 2.3063)
(-5.86412 0 3.56564)
(-5.96846 0 3.23306)
(-1.74776 0 0.56905)
(2.70697 -9.08831e-19 -1.67627)
(1.97045 1.97799e-18 -0.981031)
(0.678522 1.43906e-18 -0.529349)
(4.55571 7.08619e-19 -2.78254)
(34.1763 0 -2.32408)
(34.4722 -3.63744e-20 -2.46753)
(34.7134 0 -2.90953)
(34.4059 0 -3.6741)
(33.2341 -2.79875e-20 -4.56251)
(31.1869 -2.7449e-20 -5.321)
(28.4573 2.82949e-20 -5.77966)
(25.32 -8.89913e-20 -5.88797)
(22.0476 0 -5.68632)
(18.8589 3.09899e-23 -5.26029)
(15.8974 3.59131e-20 -4.70159)
(13.236 0 -4.08564)
(10.8957 0 -3.46485)
(8.86586 0 -2.87211)
(7.12143 0 -2.32374)
(5.63145 3.26332e-22 -1.82951)
(4.36431 2.89486e-22 -1.39028)
(3.2909 7.75838e-20 -1.00573)
(2.38476 7.66316e-20 -0.672052)
(1.62327 0 -0.385447)
(0.986013 -1.4805e-19 -0.141706)
(0.456498 -1.45182e-19 0.0644146)
(0.0192168 0 0.235752)
(-0.338828 -2.57232e-22 0.377283)
(-0.628671 2.24424e-22 0.492355)
(-0.860222 -1.30204e-19 0.58448)
(-1.04204 0 0.656585)
(-1.18156 0 0.711371)
(-1.285 2.36206e-19 0.751488)
(-1.35797 2.06053e-22 0.780339)
(-1.40659 4.40116e-19 0.795403)
(-1.43387 0 0.799797)
(-1.44393 4.08519e-19 0.797077)
(-1.43907 0 0.788975)
(-1.42211 0 0.775718)
(-1.39567 -1.81628e-19 0.758716)
(-1.36179 0 0.738462)
(-1.322 -3.34991e-19 0.715785)
(-1.27798 1.05719e-22 0.691308)
(-1.23076 3.08234e-19 0.665493)
(-1.18155 0 0.639007)
(-1.13131 6.58821e-23 0.612041)
(-1.08046 0 0.584792)
(-1.02954 0 0.55755)
(-0.978965 0 0.530495)
(-0.929041 0 0.503831)
(-0.880198 0 0.477887)
(-0.832975 4.33908e-19 0.45306)
(-0.788187 0 0.429931)
(-0.746805 0 0.409028)
(-0.709757 -3.77784e-19 0.390891)
(-0.678072 0 0.375997)
(-0.652369 -3.4383e-19 0.364498)
(-0.632835 -3.27873e-19 0.356274)
(-0.618932 6.25113e-19 0.350652)
(-0.608981 0 0.346234)
(-0.599987 -5.6755e-19 0.3407)
(-0.587142 -5.40514e-19 0.330656)
(-0.56341 0 0.311544)
(-0.519812 0 0.277849)
(-0.445794 0 0.223703)
(-0.331641 4.43501e-19 0.144578)
(-0.170056 0 0.0382684)
(0.0388434 0 -0.0921128)
(0.284114 7.5899e-19 -0.236893)
(0.540809 -1.43683e-18 -0.377994)
(0.772012 0 -0.492674)
(0.93271 0 -0.555951)
(0.978893 0 -0.547035)
(0.888853 0 -0.45938)
(0.662112 -5.41585e-19 -0.304983)
(0.345932 1.02803e-18 -0.114873)
(-0.00230567 0 0.0759198)
(-0.284941 0 0.210819)
(-0.437188 -8.87567e-19 0.264997)
(-0.44249 0 0.23628)
(-0.331985 -8.07568e-19 0.152337)
(-0.164447 7.69583e-19 0.0488004)
(0.00477953 0 -0.0459871)
(0.154093 0 -0.128569)
(0.302381 0 -0.210335)
(0.440821 0 -0.28559)
(0.564328 0 -0.349554)
(0.641682 1.05342e-18 -0.378863)
(0.625127 0 -0.33666)
(0.37925 1.77181e-18 -0.14376)
(-0.19191 0 0.247899)
(-1.20293 7.44358e-22 0.91761)
(-2.82534 1.20328e-21 1.93684)
(-4.76071 0 3.05121)
(-6.22535 1.12206e-18 3.78935)
(-6.77153 0 4.02266)
(-7.42218 0 4.34677)
(-7.41997 -2.07526e-18 4.21961)
(-6.6515 0 3.69318)
(-5.589 0 3.38105)
(-8.37397 0 4.95561)
(-6.49859 0 3.58271)
(-5.23413 0 1.08322)
(11.2584 0 -8.32218)
(16.4787 0 -9.0825)
(13.0336 0 -6.63481)
(6.13847 1.30118e-18 -2.60177)
(0.779944 0 -0.0945756)
(-0.0956842 0 0.0318353)
(0.90381 0 -0.884194)
(5.31569 -2.10248e-18 -3.42503)
(5.86252 -1.64549e-18 -3.34143)
(5.8392 -1.53044e-18 -3.40724)
(6.40386 1.36689e-18 -3.69489)
(4.65834 3.96874e-21 -2.36)
(-0.0796982 -8.31868e-19 0.640281)
(-4.63889 -1.02597e-18 3.19823)
(-7.11684 0 4.34362)
(-6.86251 1.88901e-19 3.65845)
(-2.28267 -2.66685e-19 0.70186)
(2.48141 0 -1.61871)
(2.16281 -9.23738e-19 -1.04897)
(0.469767 -6.7228e-19 -0.469328)
(5.01806 -6.61439e-19 -3.12363)
(33.9256 0 -2.48383)
(34.0816 1.80228e-20 -2.63573)
(34.3322 0 -2.92095)
(34.4229 0 -3.42164)
(34.0686 2.63533e-20 -4.09539)
(33.096 2.58408e-20 -4.80642)
(31.4691 -2.66322e-20 -5.40452)
(29.265 8.60567e-20 -5.78187)
(26.6344 0 -5.89432)
(23.7581 3.24921e-20 -5.75501)
(20.811 -6.73006e-20 -5.41299)
(17.9374 0 -4.93087)
(15.239 7.1478e-20 -4.36842)
(12.7748 0 -3.77504)
(10.5703 7.3395e-20 -3.18545)
(8.62732 7.39011e-20 -2.62417)
(6.9335 7.36413e-20 -2.10442)
(5.46942 -7.30318e-20 -1.63379)
(4.2125 -1.44064e-19 -1.21431)
(3.14028 0 -0.845495)
(2.23088 1.39364e-19 -0.52519)
(1.46465 0 -0.249524)
(0.823353 0 -0.015454)
(0.290561 -1.29709e-19 0.1816)
(-0.148124 2.5204e-19 0.345297)
(-0.505595 0 0.479585)
(-0.793259 0 0.587912)
(-1.02108 0 0.673669)
(-1.19789 -2.21874e-19 0.739663)
(-1.33145 2.14522e-19 0.788529)
(-1.42783 -1.75554e-22 0.824482)
(-1.49446 1.9934e-19 0.845668)
(-1.53538 -3.84099e-19 0.854898)
(-1.55559 1.84756e-19 0.85424)
(-1.55726 -1.77673e-19 0.847923)
(-1.54466 8.08644e-23 0.835888)
(-1.52058 0 0.819153)
(-1.4872 3.15063e-19 0.798775)
(-1.44684 3.02276e-19 0.77555)
(-1.40101 -2.89851e-19 0.750102)
(-1.35137 0 0.723301)
(-1.2993 2.66121e-19 0.69542)
(-1.24548 2.54771e-19 0.666755)
(-1.19072 2.43863e-19 0.637709)
(-1.13564 2.33326e-19 0.608553)
(-1.08072 0 0.579579)
(-1.02656 0 0.55122)
(-0.973835 -4.58926e-23 0.523979)
(-0.923521 0 0.498564)
(-0.876775 0 0.475598)
(-0.834685 -3.54839e-19 0.455705)
(-0.798454 3.38549e-19 0.439419)
(-0.768822 3.22918e-19 0.42688)
(-0.746024 1.23579e-23 0.417898)
(-0.729468 -2.30307e-23 0.411626)
(-0.717261 0 0.406369)
(-0.706007 0 0.399375)
(-0.690281 1.01467e-18 0.386667)
(-0.662194 0 0.362988)
(-0.611742 0 0.32211)
(-0.527225 -4.37438e-19 0.257574)
(-0.397915 0 0.164608)
(-0.215689 0 0.0412467)
(0.0196067 7.50901e-19 -0.108484)
(0.296643 -7.11913e-19 -0.27339)
(0.58901 1.34752e-18 -0.433249)
(0.857021 0 -0.562972)
(1.0513 -6.01062e-19 -0.635011)
(1.12125 0 -0.626659)
(1.03936 0 -0.529277)
(0.799691 1.01507e-18 -0.356387)
(0.451349 0 -0.142855)
(0.0582587 0 0.0713177)
(-0.268231 0 0.221437)
(-0.452068 0 0.280852)
(-0.472635 0 0.249044)
(-0.363016 7.56235e-19 0.158034)
(-0.188502 -1.91333e-22 0.0481647)
(-0.0139486 -6.84631e-19 -0.0483606)
(0.137032 6.48518e-19 -0.13063)
(0.285854 0 -0.211601)
(0.423219 0 -0.284808)
(0.543207 0 -0.344296)
(0.610463 0 -0.362905)
(0.576914 0 -0.298676)
(0.283087 7.92238e-22 -0.0576788)
(-0.399007 0 0.423771)
(-1.60125 -6.88063e-19 1.23825)
(-3.47961 1.11055e-21 2.43238)
(-5.63179 0 3.66009)
(-7.13167 -1.0491e-18 4.36959)
(-7.59471 0 4.5259)
(-8.23801 9.58653e-19 4.83068)
(-8.16173 2.18687e-21 4.61555)
(-7.25168 0 3.97504)
(-5.94174 0 3.62796)
(-8.74848 0 5.18231)
(-6.11591 0 3.26429)
(-4.03969 2.36088e-18 -0.047203)
(8.85967 0 -7.53901)
(17.4593 0 -9.738)
(14.994 1.6214e-18 -7.4965)
(7.40094 0 -2.96885)
(1.07347 -1.25111e-18 -0.096249)
(-0.11889 1.10015e-18 0.0462628)
(0.886281 0 -1.00814)
(5.74166 3.92825e-18 -3.80262)
(6.50899 -2.83515e-21 -3.71797)
(6.57288 2.85862e-18 -3.83988)
(6.92112 -1.27629e-18 -3.95831)
(4.44856 -1.08161e-18 -2.07356)
(-1.12468 7.76651e-19 1.46452)
(-5.90978 4.80921e-19 4.08577)
(-8.18794 2.45378e-19 5.00057)
(-7.49441 -1.76343e-19 3.90173)
(-2.73632 2.48949e-19 0.7516)
(2.15182 7.77439e-19 -1.53673)
(2.29479 8.64791e-19 -1.07836)
(0.117074 0 -0.333899)
(5.27216 0 -3.36474)
(33.7028 0 -2.57668)
(33.7791 1.95415e-20 -2.74083)
(33.946 0 -2.96853)
(34.1025 0 -3.3145)
(34.0881 0 -3.79437)
(33.7463 0 -4.36485)
(32.961 2.94548e-20 -4.93949)
(31.6788 -2.78299e-20 -5.42304)
(29.9126 2.99401e-20 -5.742)
(27.7322 -6.06626e-20 -5.85903)
(25.2457 6.32653e-20 -5.77213)
(22.5797 0 -5.50577)
(19.8595 -6.71922e-20 -5.09936)
(17.1939 0 -4.59787)
(14.6661 -6.8999e-20 -4.04296)
(12.3309 -6.88654e-20 -3.47069)
(10.2173 0 -2.9077)
(8.33447 0 -2.37305)
(6.67831 6.7628e-20 -1.87825)
(5.23663 0 -1.42962)
(3.99268 0 -1.02973)
(2.92818 -1.27696e-19 -0.677927)
(2.02439 0 -0.372755)
(1.26294 0 -0.110916)
(0.62682 -1.18389e-19 0.111)
(0.100207 0 0.29683)
(-0.331268 0 0.450302)
(-0.680523 0 0.575149)
(-0.95912 4.16962e-19 0.674713)
(-1.17733 0 0.752317)
(-1.34431 -1.48134e-22 0.810574)
(-1.46721 -1.44092e-22 0.853557)
(-1.55433 1.80438e-19 0.881838)
(-1.6111 -1.73636e-19 0.896004)
(-1.64302 3.33861e-19 0.897826)
(-1.65328 1.60471e-19 0.894141)
(-1.64657 0 0.883702)
(-1.62599 0 0.867975)
(-1.59463 2.83795e-19 0.848068)
(-1.55465 -2.7213e-19 0.824786)
(-1.50828 0 0.799245)
(-1.45744 0 0.771824)
(-1.40322 -5.37867e-23 0.742935)
(-1.34674 -2.29025e-19 0.713124)
(-1.28891 -2.19111e-19 0.682775)
(-1.23048 -4.19008e-19 0.652285)
(-1.17222 0 0.622211)
(-1.11499 -4.51576e-23 0.593177)
(-1.05996 0 0.56603)
(-1.00846 0 0.541491)
(-0.961778 3.33045e-19 0.520273)
(-0.921281 -3.17725e-19 0.50296)
(-0.887852 0 0.489669)
(-0.861787 2.88891e-19 0.480127)
(-0.84246 -2.32566e-23 0.473289)
(-0.827792 0 0.46715)
(-0.814032 0 0.458514)
(-0.795213 -9.51648e-19 0.442821)
(-0.762705 0 0.414146)
(-0.705634 0 0.365621)
(-0.611351 8.20292e-19 0.290323)
(-0.468288 0 0.183393)
(-0.2676 0 0.0432624)
(-0.00874446 -1.40771e-18 -0.125057)
(0.296996 6.67227e-19 -0.30892)
(0.622538 -6.3144e-19 -0.486199)
(0.926453 0 -0.629852)
(1.15607 5.63146e-19 -0.710175)
(1.25475 0 -0.702953)
(1.18871 -5.02228e-19 -0.597314)
(0.944837 -4.7536e-19 -0.407967)
(0.571814 0 -0.173393)
(0.138258 0 0.0620336)
(-0.232039 8.15996e-19 0.226138)
(-0.451714 7.77563e-19 0.290916)
(-0.49458 0 0.25792)
(-0.393554 0 0.162636)
(-0.218958 -1.34822e-18 0.0498674)
(-0.0447503 6.40674e-19 -0.0449191)
(0.103631 -1.21364e-18 -0.124214)
(0.249675 0 -0.202369)
(0.38303 0 -0.271612)
(0.496157 0 -0.324171)
(0.549144 0 -0.328488)
(0.494245 0 -0.237438)
(0.148234 7.88877e-22 0.0583488)
(-0.651682 0 0.640341)
(-2.05171 0 1.61015)
(-4.17224 9.90372e-22 2.97282)