/*--------------------------------*- C++ -*----------------------------------*\
| =========                 |                                                 |
| \\      /  F ield         | OpenFOAM: The Open Source CFD Toolbox           |
|  \\    /   O peration     | Version:  2412                                  |
|   \\  /    A nd           | Website:  www.openfoam.com                      |
|    \\/     M anipulation  |                                                 |
\*---------------------------------------------------------------------------*/
FoamFile
{
    version     2.0;
    format      ascii;
    arch        "LSB;label=32;scalar=64";
    class       volVectorField;
    location    "0.91";
    object      ddtCorrDdt0(U);
}
// * * * * * * * * * * * * * * * * * * * * * * * * * * * * * * * * * * * * * //

dimensions      [0 1 -2 0 0 0 0];

internalField   nonuniform List<vector> 
12600
(
(47.5049 0 10.1101)
(48.6332 -5.54714e-17 3.83092)
(39.9607 -5.25499e-17 3.34753)
(32.3377 0 2.07537)
(27.2017 -4.44505e-19 0.973983)
(26.2232 0 1.17683)
(26.3628 8.49331e-17 1.71912)
(21.4233 0 -0.323612)
(9.69527 0 -5.05159)
(1.46294 0 -6.20052)
(0.501 0 -5.87149)
(0.158169 1.34094e-16 -6.5437)
(-9.15268 1.61129e-16 -11.7265)
(-25.9664 0 -18.0094)
(-32.3049 -1.31989e-16 -17.2374)
(-20.6259 0 -8.7917)
(-10.4611 1.22367e-17 -5.36049)
(-22.42 0 -15.3093)
(-45.4384 -7.57905e-17 -25.9705)
(-41.296 0 -16.6142)
(-16.5501 0 -0.764393)
(-26.1685 0 -14.6582)
(-51.8258 1.0786e-15 -29.7295)
(-39.3024 -1.08361e-15 -6.6764)
(11.2181 -5.98161e-17 14.0494)
(-44.2639 -5.14609e-16 -46.7423)
(-56.2866 0 -19.2871)
(-0.492343 0 12.6773)
(3.82098 0 5.88548)
(2.04993 -3.4643e-16 4.19519)
(17.9681 -7.57175e-16 12.2842)
(29.0573 0 15.1662)
(27.1812 0 11.6791)
(25.8069 -1.32708e-16 10.2788)
(31.3265 -9.22043e-17 12.6434)
(36.5293 0 14.1405)
(35.4425 0 12.4179)
(31.0351 2.28799e-16 10.2756)
(27.7124 0 9.30484)
(24.9671 3.91361e-18 8.11508)
(20.4307 4.1392e-16 5.68882)
(13.4897 4.49869e-16 1.90651)
(6.40972 0 -1.33425)
(0.695242 4.35871e-16 -3.43045)
(-3.99096 3.89764e-16 -4.74845)
(-8.24863 -6.77126e-16 -5.65051)
(-11.7282 5.66142e-16 -6.07729)
(-13.7641 0 -5.93169)
(-14.2784 -2.87271e-16 -5.37723)
(-13.8905 1.52284e-16 -4.82245)
(-13.2324 0 -4.59205)
(-12.5496 2.75134e-18 -4.61708)
(-10.3338 1.34441e-16 -4.17328)
(-11.8202 0 -5.42652)
(-12.1165 -5.40507e-16 -4.96538)
(-9.0479 0 -3.84138)
(-5.15336 0 -1.80707)
(-0.0241187 1.54121e-18 -0.271212)
(4.3396 1.70717e-18 -0.0345179)
(7.98438 3.05921e-16 -0.145898)
(10.4723 -6.91989e-17 -0.362066)
(11.8179 -3.57878e-16 -0.0404612)
(11.8178 0 0.419831)
(10.706 -1.17224e-15 0.746512)
(9.09752 -1.43751e-15 0.948399)
(7.36803 3.18579e-15 1.01299)
(5.66202 -1.65045e-15 0.83123)
(4.1954 0 0.494622)
(3.09666 0 0.129489)
(2.27922 0 -0.424492)
(1.25237 0 -1.39604)
(-0.508012 0 -2.86488)
(-2.67837 1.66953e-15 -4.95924)
(-10.9598 -7.26742e-16 -9.10853)
(3.16126 0 9.92681)
(-0.880318 0 -2.88186)
(-7.22226 1.37917e-15 -3.06425)
(-7.36035 5.21107e-18 -2.04087)
(-5.51729 6.17344e-15 -1.83676)
(-3.75912 0 -2.05758)
(-1.5466 0 -2.02367)
(-1.96543 0 -4.51714)
(-0.239071 4.25411e-18 -0.793992)
(0.290277 0 0.500069)
(-0.577263 0 1.21012)
(-1.27501 8.05846e-15 1.52451)
(-0.208493 -1.69038e-19 1.57726)
(0.688281 0 1.45717)
(4.12312 0 0.279408)
(4.0841 -9.97961e-15 0.167608)
(10.7301 -9.02218e-15 0.858733)
(21.2088 -7.2392e-15 -8.14275)
(17.6911 -4.6302e-15 -7.78859)
(-6.50509 -7.45459e-18 4.99203)
(26.4141 -8.37102e-18 -14.1913)
(-51.7791 2.96061e-15 27.2554)
(4.71018 0 -3.37278)
(9.63995 0 -3.629)
(-13.1485 0 8.28701)
(7.50708 3.47421e-15 -4.64565)
(-6.90731 -1.37366e-15 3.64677)
(-0.819243 1.19712e-15 0.346567)
(-1.36014 4.40737e-16 0.229542)
(-4.23091 0 1.42436)
(-3.22336 0 -0.134491)
(4.29266 0 -2.9482)
(12.6554 4.58229e-15 -6.51121)
(13.6818 0 -6.9419)
(9.55376 -4.00999e-15 -4.82231)
(3.80178 0 -1.6937)
(-4.38928 0 2.37845)
(-9.66145 3.33857e-15 4.84707)
(-9.97397 0 6.08412)
(-10.6153 0 6.64014)
(-10.6297 0 6.67524)
(-8.49406 -4.43314e-15 5.36625)
(-3.91757 0 2.68506)
(-0.822838 2.89023e-15 0.919754)
(-1.35805 0 0.928269)
(0.0538301 -1.49731e-19 -0.0548899)
(33.2522 1.2265e-17 12.2024)
(33.123 3.90134e-17 5.60378)
(33.2519 -9.36922e-19 7.75216)
(28.692 0 4.92777)
(25.6752 6.62609e-17 2.60233)
(26.7092 -7.79388e-17 2.4597)
(26.1315 -8.85998e-17 2.39196)
(18.2043 9.28694e-17 -1.17904)
(6.55089 0 -7.31732)
(0.790923 0 -9.09794)
(0.161914 0 -9.04463)
(-3.45977 0 -11.4455)
(-17.2233 0 -20.4691)
(-33.1644 0 -29.6428)
(-31.8564 1.54686e-17 -25.7341)
(-16.4263 0 -12.3539)
(-13.989 -1.11369e-17 -10.2607)
(-36.9793 0 -30.4905)
(-57.0918 1.26443e-16 -47.4657)
(-38.9583 3.01416e-17 -29.0124)
(-16.6196 0 -4.18524)
(-46.46 2.89968e-16 -35.5289)
(-65.896 -5.30677e-16 -58.3852)
(-29.9872 4.77179e-16 -12.312)
(3.41632 8.94966e-17 19.165)
(-91.7853 0 -112.549)
(-48.3103 3.40704e-16 -30.4387)
(13.0688 0 26.1308)
(4.89516 0 11.7208)
(6.96247 0 10.4466)
(26.1691 3.90221e-16 21.9976)
(35.0159 0 24.8423)
(30.9367 0 18.5797)
(30.389 0 16.0464)
(37.1301 0 19.0781)
(41.8619 0 20.6364)
(39.5401 0 17.4438)
(34.6094 -2.35406e-16 13.7315)
(31.1812 0 11.9834)
(27.9431 -7.54466e-16 10.1453)
(22.483 -8.54478e-16 6.676)
(14.7098 -4.65948e-16 1.60849)
(7.27709 0 -2.6159)
(1.46032 0 -5.24385)
(-3.33709 -7.93749e-16 -6.88721)
(-7.72598 6.91389e-16 -8.06179)
(-11.2461 -5.67056e-16 -8.6355)
(-13.2138 0 -8.43053)
(-13.6513 2.82263e-16 -7.68238)
(-13.2582 0 -6.94802)
(-12.6343 0 -6.6466)
(-11.9003 -6.05435e-17 -6.72068)
(-9.95081 0 -6.66119)
(-14.1401 0 -12.9169)
(-11.4355 5.46103e-16 -8.06265)
(-7.9693 0 -6.87202)
(-3.10148 0 -3.67097)
(2.45322 2.255e-18 -1.59288)
(6.9438 4.98761e-16 -1.22215)
(10.6299 -2.61726e-18 -1.26993)
(13.1435 0 -1.31504)
(14.3378 3.61765e-16 -0.771801)
(13.9032 8.14433e-16 -0.0442807)
(12.25 0 0.545038)
(10.1904 2.8684e-15 0.949985)
(8.25751 2.2657e-18 1.07972)
(6.69804 0 0.71235)
(5.75094 -1.61678e-15 -0.0438866)
(5.59795 0 -1.02646)
(6.07359 0 -2.44321)
(6.45881 0 -4.50993)
(6.01891 0 -7.16278)
(4.60711 -3.25794e-15 -10.3978)
(-2.71128 5.30967e-16 -15.9001)
(24.673 0 28.2912)
(5.15769 0 -6.07563)
(-2.41507 1.36801e-15 -6.17619)
(-3.21357 6.76138e-18 -4.64993)
(-0.624875 3.27753e-18 -4.73129)
(2.51841 0 -5.42645)
(4.54739 0 -5.66821)
(1.46639 0 -8.89267)
(1.33262 3.70815e-18 -1.30323)
(-1.94409 -8.64316e-15 2.32603)
(-5.13314 8.11911e-15 4.35686)
(-7.14664 -7.78614e-15 5.16139)
(-5.94082 8.48944e-20 4.91453)
(-4.14036 -6.54754e-15 4.21993)
(3.73164 0 0.570883)
(5.31466 9.59215e-15 -0.331562)
(24.5445 0 1.06225)
(48.8948 6.94111e-15 -24.7881)
(51.4273 0 -26.0019)
(-27.378 -9.48283e-15 16.4539)
(85.5498 -3.13399e-15 -46.5406)
(-149.366 0 85.3435)
(13.6385 0 -11.107)
(23.8008 -3.03835e-15 -10.9693)
(-37.8002 1.56984e-15 23.3335)
(22.9353 -3.29917e-15 -13.9572)
(-20.8556 1.30462e-15 12.1207)
(-2.99456 -1.13593e-15 1.33139)
(-2.97339 0 1.22188)
(-9.31573 1.83929e-15 4.40489)
(-4.44994 0 -0.624345)
(18.9227 0 -11.5797)
(39.9341 -4.32625e-15 -22.3895)
(38.4648 0 -21.3431)
(23.0639 1.66715e-18 -12.7154)
(5.01793 3.49082e-15 -2.26121)
(-17.6776 0 8.9282)
(-29.9002 0 16.6255)
(-30.774 0 18.3557)
(-32.5458 2.94944e-15 19.6157)
(-33.2772 -4.83747e-15 19.9444)
(-25.7694 4.16755e-15 15.4818)
(-12.9483 0 7.77956)
(-3.89871 -2.71465e-15 2.607)
(-3.9563 0 2.44179)
(-0.0155861 4.22584e-15 -0.075422)
(20.9234 -2.734e-17 6.54313)
(25.3801 2.22823e-17 7.95207)
(23.9588 1.06842e-16 9.21631)
(20.4567 0 6.18186)
(20.2776 6.45272e-17 4.20806)
(22.2869 -7.74576e-19 3.4293)
(20.9211 0 1.87231)
(13.5064 -8.81469e-17 -1.17583)
(4.89536 0 -3.79074)
(0.486742 -6.70459e-17 -4.97362)
(-0.619252 0 -5.44074)
(-5.98033 0 -8.46691)
(-18.3095 0 -14.6157)
(-27.6712 0 -18.269)
(-21.47 4.45818e-17 -12.0891)
(-11.1927 0 -4.65914)
(-18.1089 0 -8.61538)
(-40.6692 0 -25.2728)
(-47.8817 -4.51252e-17 -32.8049)
(-26.2573 5.23332e-17 -18.066)
(-20.8109 0 -6.87447)
(-47.1079 -7.58486e-17 -22.5105)
(-44.937 0 -30.5888)
(-21.5122 8.52075e-17 -16.0986)
(-29.2182 0 -7.91981)
(-95.0699 0 -109.601)
(-7.41104 -3.23183e-16 2.43625)
(18.1587 0 26.5607)
(3.29634 0 11.7904)
(9.29814 -3.53794e-16 12.4376)
(24.6208 0 17.4214)
(29.9659 0 16.6398)
(26.4716 0 11.6754)
(27.2636 0 10.0142)
(33.2419 7.9621e-17 11.1437)
(36.5978 0 10.9032)
(34.2881 0 8.07673)
(30.1247 2.36087e-16 5.25872)
(27.187 0 3.9103)
(24.417 7.2126e-16 2.83075)
(19.8717 -1.64382e-18 1.00954)
(13.8418 4.41136e-16 -1.13614)
(8.07834 0 -2.70334)
(3.42319 0 -3.49703)
(-0.680985 3.74121e-16 -3.99517)
(-4.63737 0 -4.45484)
(-7.92758 5.36411e-16 -4.7156)
(-9.89018 0 -4.61318)
(-10.5144 -2.79653e-18 -4.28523)
(-10.3272 0 -4.00039)
(-9.75874 0 -3.92156)
(-8.97778 0 -4.06648)
(-7.86722 -1.36231e-16 -4.81154)
(-11.9625 0 -12.1493)
(-7.75201 0 -6.05238)
(-5.04177 0 -5.99088)
(-0.499209 0 -3.83244)
(4.44604 1.16192e-15 -2.96656)
(8.95494 0 -2.65216)
(12.7252 -2.08071e-18 -2.48078)
(15.2481 0 -2.17864)
(15.9845 -1.71722e-16 -1.76429)
(14.8739 -7.6789e-16 -1.2044)
(12.5694 0 -0.635965)
(10.0458 -2.7078e-15 -0.20484)
(7.97823 -1.49632e-15 -0.105374)
(6.7412 0 -0.566148)
(6.52806 1.52261e-15 -1.57747)
(7.47541 0 -3.10693)
(9.43506 0 -5.20679)
(11.668 0 -7.76612)
(13.3354 0 -10.4143)
(14.1963 1.36658e-17 -12.5835)
(11.6265 -4.99328e-16 -13.8599)
(41.9651 0 38.5555)
(12.202 0 -7.93984)
(4.1608 3.38453e-18 -7.45477)
(1.71536 -4.20133e-15 -6.22268)
(4.1538 -2.83386e-15 -6.70411)
(8.03565 0 -7.59686)
(9.59183 0 -7.88963)
(6.17161 0 -7.58692)
(1.89536 -1.64578e-14 -0.398547)
(-5.15461 3.23686e-18 5.00883)
(-10.6431 -7.61636e-15 8.00189)
(-13.5044 0 9.00858)
(-11.4752 -6.72461e-15 7.96284)
(-8.43191 6.13832e-15 6.28699)
(3.56197 0 0.40317)
(5.65863 0 -1.18065)
(33.6468 7.82908e-15 -1.20061)
(69.9603 0 -37.6953)
(85.657 4.12664e-15 -43.6659)
(-52.7778 3.33924e-18 29.3702)
(142.646 2.90664e-15 -76.2885)
(-231.315 -2.64495e-15 134.297)
(19.1395 0 -19.3168)
(36.0254 2.84338e-15 -16.5073)
(-58.2065 -1.4689e-15 33.8612)
(35.0173 3.08019e-15 -20.9656)
(-35.0768 0 20.9997)
(-6.0727 -1.06868e-15 2.63951)
(-5.40522 0 2.86686)
(-13.3848 -1.71987e-15 6.75146)
(-1.81467 1.8141e-15 -1.94545)
(36.7063 0 -22.9785)
(67.6012 4.04395e-15 -38.8951)
(59.5376 0 -32.7868)
(30.3339 7.06724e-15 -15.69)
(1.13573 -3.26207e-15 1.06536)
(-31.4137 0 18.3931)
(-47.7748 0 27.9865)
(-48.4654 0 28.3779)
(-50.8152 -9.32982e-19 29.8222)
(-53.0216 4.51858e-15 30.7598)
(-40.1902 -3.89251e-15 22.9469)
(-20.8393 0 11.6339)
(-6.37949 -2.53674e-15 3.83332)
(-5.63392 0 3.20546)
(-0.15969 5.88741e-20 -0.042901)
(19.8617 1.48811e-17 9.02026)
(21.5128 1.71899e-18 9.61486)
(17.8726 -5.11802e-17 8.74154)
(15.118 5.61195e-17 6.67415)
(15.7876 6.22135e-17 5.39711)
(17.6254 1.41562e-16 4.45372)
(15.6813 0 2.39129)
(8.60996 0 -0.720836)
(1.16046 0 -3.16864)
(-2.15393 6.35084e-17 -4.11077)
(-3.21273 0 -4.34432)
(-8.80445 0 -6.42853)
(-19.0512 0 -9.98005)
(-23.9186 0 -10.7443)
(-16.78 0 -5.86433)
(-11.4589 3.78616e-17 -2.90966)
(-22.5828 -4.71739e-17 -8.00335)
(-39.4776 0 -16.3588)
(-36.5414 0 -14.9088)
(-17.3302 -7.66735e-17 -6.77624)
(-21.1595 7.28193e-17 -9.28752)
(-36.6942 -1.88737e-16 -4.79174)
(-30.4634 4.89363e-17 0.130192)
(-28.7648 -8.06672e-17 -21.8923)
(-52.875 -1.63744e-16 -30.5658)
(-43.0354 5.28409e-16 -32.134)
(32.6964 0 43.0264)
(15.506 -1.53257e-16 25.8546)
(1.38723 0 11.8103)
(9.7988 3.34851e-16 12.4166)
(23.1575 0 14.3677)
(27.1639 0 12.7156)
(24.3853 0 8.7197)
(26.4462 -1.12141e-16 8.04234)
(32.3521 -7.53179e-17 8.81773)
(35.0468 0 7.93727)
(32.7323 0 5.24767)
(29.114 -2.23249e-16 2.92371)
(26.5819 0 1.85013)
(24.0111 6.79771e-19 1.05732)
(19.6391 3.86191e-16 -0.406714)
(13.9619 0 -2.04768)
(8.60405 0 -3.10648)
(4.22192 0 -3.54059)
(0.245623 0 -3.82372)
(-3.62848 6.0764e-16 -4.14754)
(-6.83791 0 -4.33629)
(-8.74378 -3.77538e-16 -4.23524)
(-9.36022 -2.49352e-16 -3.9893)
(-9.17997 0 -3.82508)
(-8.58819 0 -3.85022)
(-7.76873 0 -4.09346)
(-6.79405 1.28528e-16 -4.91413)
(-8.34573 -1.94279e-16 -8.56876)
(-5.65662 -5.03783e-16 -5.95118)
(-2.738 0 -5.76974)
(1.6134 -5.87002e-16 -4.32425)
(6.41902 -1.09244e-15 -3.77013)
(10.9506 0 -3.4464)
(14.6558 -5.3504e-16 -3.21765)
(16.966 0 -2.87306)
(17.3282 1.65212e-16 -2.44538)
(15.7562 7.27669e-16 -1.78952)
(12.9815 0 -1.07995)
(10.1293 1.27501e-15 -0.564287)
(8.01631 1.40874e-15 -0.527015)
(7.11719 0 -1.2152)
(7.62228 0 -2.65282)
(9.65073 0 -4.87614)
(13.0136 -1.21683e-15 -7.86175)
(16.8913 -1.08025e-15 -11.334)
(20.3014 0 -14.7185)
(22.9887 1.41378e-15 -16.9556)
(24.2546 4.85344e-16 -16.3263)
(49.9588 0 31.3659)
(18.7759 0 -11.928)
(10.7114 -1.21023e-15 -10.5546)
(6.6773 -1.45311e-18 -8.68027)
(8.44054 0 -8.9489)
(12.3408 0 -9.76818)
(13.4471 0 -9.39035)
(9.22062 0 -6.18848)
(1.2384 5.88757e-18 0.954511)
(-9.18747 7.60071e-15 8.03361)
(-16.797 0 11.8763)
(-19.9785 0 12.8791)
(-16.337 0 10.7588)
(-11.7123 5.75256e-15 7.90271)
(3.75921 0 -0.00360026)
(5.40811 8.39731e-15 -1.48755)
(37.9024 -7.33156e-15 -5.4629)
(83.7555 6.09057e-15 -47.711)
(119.097 -3.86322e-15 -59.614)
(-82.3649 8.29485e-15 44.5456)
(190.124 -2.72024e-15 -99.3436)
(-291.153 2.47497e-15 172.723)
(22.2932 0 -28.3566)
(47.5403 0 -21.1818)
(-73.1465 -1.34488e-15 42.1776)
(43.445 -1.4385e-15 -26.239)
(-48.9489 -1.12079e-15 30.0812)
(-10.0822 -4.47312e-18 4.19431)
(-8.40414 0 4.7478)
(-16.1742 0 8.31712)
(4.0825 -1.69564e-15 -5.38526)
(57.3998 0 -36.2371)
(94.6663 -3.77174e-15 -54.841)
(75.2394 0 -41.0522)
(30.4761 -4.39875e-18 -14.7493)
(-7.17496 0 6.82503)
(-45.1208 -2.35361e-15 28.1939)
(-62.8763 2.7641e-15 37.2438)
(-62.4634 2.67185e-15 36.6339)
(-64.9627 -1.08896e-18 38.2402)
(-69.5879 0 40.1911)
(-51.3259 3.63512e-15 28.9867)
(-27.3961 2.76558e-15 14.6843)
(-8.17939 2.36872e-15 4.4508)
(-6.36843 0 3.51468)
(-0.329093 7.08295e-21 -0.0607051)
(18.7257 0 9.97593)
(18.4972 1.18459e-18 8.75426)
(15.1677 0 7.47969)
(12.8354 -5.30219e-17 6.12675)
(13.0554 -1.16465e-16 5.33297)
(13.5858 -6.69175e-17 4.48539)
(10.5166 0 2.43496)
(3.51617 0 -0.540045)
(-2.86506 6.59076e-17 -2.7613)
(-5.02119 6.10203e-17 -3.29861)
(-5.77982 -6.03644e-17 -3.10932)
(-11.2097 -1.19346e-16 -4.29134)
(-19.8916 -1.03205e-16 -6.32274)
(-22.5548 0 -6.3835)
(-16.2673 0 -3.74844)
(-14.365 -7.63049e-17 -3.57086)
(-25.5262 1.37355e-18 -7.21543)
(-35.7582 0 -8.2797)
(-28.2092 -2.55009e-17 -2.38748)
(-15.3845 -8.75293e-17 -0.307752)
(-24.6731 -6.88494e-17 -12.4983)
(-37.9128 0 -10.8961)
(-33.4025 -4.62597e-17 1.01504)
(-30.8887 1.0839e-16 -12.7073)
(-39.2887 1.54791e-16 -19.3181)
(12.7501 -4.85875e-17 39.0863)
(33.2544 0 43.59)
(6.77965 3.01722e-17 23.4815)
(-0.428849 0 12.2713)
(10.7874 3.02172e-16 13.8537)
(22.4738 0 13.3353)
(25.6975 0 11.1967)
(23.5204 0 7.73359)
(26.5324 1.05918e-16 7.61144)
(32.31 0 8.18475)
(34.4213 0 6.79023)
(32.0746 0 4.04932)
(28.9039 0 2.01925)
(26.6696 2.7641e-16 1.0926)
(24.1027 -6.46494e-16 0.288749)
(19.7154 0 -1.14212)
(14.1912 -3.93133e-16 -2.63926)
(9.06112 0 -3.50456)
(4.82666 0 -3.78932)
(0.909744 0 -3.97468)
(-2.90811 -2.58286e-18 -4.21775)
(-6.03054 0 -4.33673)
(-7.85376 3.55979e-16 -4.1991)
(-8.42666 0 -3.97365)
(-8.22273 0 -3.87544)
(-7.59962 2.26808e-17 -3.98451)
(-6.75843 0 -4.32834)
(-5.86661 0 -5.30062)
(-6.27522 -4.94329e-18 -7.56595)
(-3.75581 4.74503e-16 -5.88544)
(-0.574001 0 -5.42319)
(3.42568 6.7973e-19 -4.8264)
(8.21959 1.02506e-15 -4.35956)
(12.7046 0 -4.05405)
(16.2848 2.50689e-16 -3.79685)
(18.3784 0 -3.371)
(18.4231 -1.55423e-16 -2.85104)
(16.4711 -6.84433e-16 -2.0679)
(13.3098 0 -1.22755)
(10.2003 -1.19963e-15 -0.667288)
(8.09444 -1.84e-19 -0.750718)
(7.55801 0 -1.73466)
(8.79522 0 -3.65836)
(11.9106 0 -6.6081)
(16.6586 2.28567e-15 -10.4996)
(22.1542 7.92893e-19 -14.9299)
(27.2958 0 -19.1062)
(31.7527 -1.30784e-15 -21.7356)
(35.821 -9.6607e-16 -20.7035)
(47.6476 0 5.11918)
(26.2521 0 -16.5351)
(17.9883 0 -14.1164)
(12.1121 -8.80318e-19 -11.3211)
(12.5457 0 -11.0177)
(15.7627 0 -11.4287)
(16.1529 0 -10.1389)
(10.4947 0 -5.16428)
(-0.209354 7.22542e-15 3.01681)
(-13.6374 7.10809e-15 11.5363)
(-23.2123 0 16.0066)
(-26.2701 0 16.6533)
(-20.4132 0 12.9929)
(-13.9949 2.23641e-20 8.78558)
(4.18259 0 -0.577057)
(4.1953 -7.86108e-15 -1.30951)
(38.7353 0 -8.61793)
(90.9473 -5.70006e-15 -54.4674)
(149.4 0 -72.3491)
(-114.556 -3.87929e-15 60.854)
(218.817 0 -110.444)
(-325.16 0 196.55)
(25.6892 0 -39.1597)
(59.6916 0 -25.2577)
(-83.4027 1.25752e-15 47.6424)
(48.7951 0 -29.5844)
(-61.792 1.04777e-15 38.8219)
(-14.9145 9.38209e-16 5.97887)
(-11.5298 0 6.70389)
(-17.4617 0 8.74384)
(12.6502 0 -12.0456)
(80.0943 0 -51.242)
(119.663 6.95387e-18 -69.4006)
(84.6238 0 -44.8086)
(24.4308 -6.15243e-15 -9.29403)
(-17.8725 0 14.6255)
(-57.7611 4.39649e-15 36.7268)
(-74.4745 -2.58162e-15 44.1749)
(-73.3755 -2.4953e-15 42.7693)
(-75.8457 -2.40136e-15 44.4577)
(-83.7284 0 47.8128)
(-59.9535 0 32.8029)
(-32.777 -5.16729e-15 16.9108)
(-9.16321 2.21758e-15 4.65088)
(-6.43522 1.58985e-15 3.30625)
(-0.483648 -1.71987e-15 -0.0721761)
(16.8709 0 9.73029)
(17.1309 -4.37354e-17 8.40373)
(14.6177 0 7.16195)
(12.6367 0 5.9801)
(12.1884 0 5.14142)
(11.012 0 4.11036)
(6.35921 0 2.11438)
(-0.921359 -6.58126e-17 -0.507639)
(-6.38284 -6.21896e-17 -2.25231)
(-7.56894 -1.14234e-16 -2.29003)
(-8.27938 1.13056e-16 -1.75236)
(-13.8716 1.12647e-16 -2.45871)
(-21.7568 9.74176e-17 -3.89201)
(-23.348 0 -4.04476)
(-17.8347 0 -2.92011)
(-17.1679 7.64961e-17 -3.51765)
(-26.0517 7.8664e-17 -4.66855)
(-31.5366 0 -1.50753)
(-24.5323 2.40703e-17 4.26287)
(-19.1932 8.26194e-17 1.30353)
(-29.3396 0 -12.2017)
(-38.2888 3.90236e-17 -13.5106)
(-32.5741 0 -0.241867)
(-20.9704 6.56985e-17 6.63271)
(-13.8663 -2.95597e-16 8.46029)
(23.5539 -1.03172e-16 48.7626)
(14.4297 0 21.4372)
(-2.80079 1.08186e-16 11.7905)
(-2.17603 -2.28124e-16 11.3565)
(14.7384 -5.66524e-16 20.8445)
(22.7785 -2.66676e-16 15.0865)
(24.7779 0 10.9279)
(23.2738 -1.31384e-16 7.82713)
(27.029 0 7.94509)
(32.555 0 8.30267)
(34.0568 0 6.39023)
(31.688 0 3.4941)
(28.9176 0 1.62464)
(26.89 -8.15132e-19 0.739883)
(24.2366 3.04755e-16 -0.189381)
(19.7758 0 -1.69904)
(14.3696 7.39907e-16 -3.14524)
(9.42953 0 -3.90405)
(5.30654 0 -4.10968)
(1.42584 0 -4.2465)
(-2.34568 -5.37388e-16 -4.44264)
(-5.38127 0 -4.50895)
(-7.12036 0 -4.33921)
(-7.64798 0 -4.12665)
(-7.42122 0 -4.08375)
(-6.7748 -4.15569e-17 -4.27153)
(-5.92777 0 -4.70997)
(-5.04848 0 -5.76358)
(-5.0348 1.76856e-16 -7.83028)
(-2.1997 0 -6.12306)
(1.06786 0 -5.59579)
(4.96527 1.03736e-15 -5.29894)
(9.76203 -4.81075e-16 -4.84085)
(14.1761 0 -4.50759)
(17.6132 0 -4.19184)
(19.4832 0 -3.67672)
(19.2433 1.48058e-16 -3.04617)
(16.9693 0 -2.15183)
(13.4915 0 -1.21569)
(10.1847 2.25329e-15 -0.653692)
(8.12412 -2.48672e-15 -0.899603)
(7.96159 0 -2.2148)
(9.92342 0 -4.65046)
(14.0978 0 -8.33725)
(20.1803 -1.07243e-15 -13.1333)
(27.2457 9.51352e-16 -18.5257)
(34.0843 1.64384e-15 -23.5179)
(40.2917 1.22691e-15 -26.6815)
(45.8603 4.78819e-16 -25.9977)
(45.5489 -5.99103e-16 -21.3483)
(35.1811 0 -21.5586)
(25.9208 0 -18.0022)
(17.9769 1.73681e-15 -14.1126)
(16.4668 0 -12.9073)
(18.3611 0 -12.5208)
(17.7473 0 -10.1416)
(10.4988 0 -3.92043)
(-2.24861 0 5.60819)
(-18.2518 -1.33033e-14 15.3391)
(-29.6077 0 20.1982)
(-32.1222 -5.98825e-15 20.1265)
(-23.5347 0 14.5442)
(-15.2401 -8.20522e-19 8.93102)
(4.63372 9.18939e-15 -1.19219)
(1.73717 0 -0.454906)
(32.4257 0 -16.848)
(92.2491 0 -58.837)
(173.796 0 -80.4648)
(-144.072 3.62156e-15 75.7584)
(221.964 0 -107.07)
(-333.526 0 206.771)
(31.8675 0 -53.0949)
(73.4162 0 -29.7571)
(-89.0397 0 51.1361)
(51.4275 0 -31.378)
(-72.7672 0 46.821)
(-20.4555 0 7.87585)
(-14.4756 -3.30613e-16 8.45039)
(-16.8764 0 7.78958)
(24.2822 0 -21.0153)
(103.949 0 -67.2034)
(141.051 3.28538e-15 -81.5227)
(86.5337 0 -43.636)
(13.0633 2.87096e-15 -0.609527)
(-29.08 0 22.6435)
(-67.726 -8.30421e-19 43.8907)
(-82.4388 0 49.1491)
(-81.7712 2.32746e-15 47.6922)
(-83.9314 0 49.4356)
(-95.3763 0 54.1747)
(-66.068 0 35.111)
(-37.0754 2.41343e-15 18.518)
(-9.4512 -4.14287e-15 4.43082)
(-5.99348 -2.96968e-15 2.85512)
(-0.686452 -1.60524e-15 -0.0671591)
(15.3094 0 10.121)
(16.3058 4.24372e-17 8.92368)
(14.2596 0 7.46966)
(12.8184 0 6.20904)
(12.0351 5.25808e-17 5.06417)
(9.52715 5.86939e-17 3.57938)
(3.61589 -6.19607e-17 1.52878)
(-3.8716 1.82144e-16 -0.629158)
(-8.71929 0 -1.84217)
(-9.61437 1.43363e-18 -1.64046)
(-10.9546 -5.28497e-17 -1.11403)
(-17.1231 0 -1.60376)
(-24.558 0 -2.5676)
(-25.4331 0 -2.63811)
(-20.3311 0 -2.28096)
(-19.669 -2.33331e-18 -2.97332)
(-26.0268 -2.91023e-18 -2.43572)
(-29.2934 -1.45593e-17 2.11449)
(-25.4293 1.49517e-17 6.27142)
(-25.1469 0 1.22327)
(-31.4744 -6.0488e-17 -7.75006)
(-33.1221 -3.67853e-17 -6.31715)
(-24.6522 0 6.15553)
(-11.0615 1.21499e-17 19.4297)
(-1.32879 2.76251e-17 23.2194)
(13.0232 -3.03675e-16 33.6818)
(-0.444581 0 9.56305)
(-10.5022 0 0.840151)
(0.343036 2.14943e-16 9.50665)
(16.9171 4.27025e-18 23.1609)
(28.787 4.83718e-16 30.1979)
(23.9569 0 11.9375)
(23.3873 2.44635e-16 8.67476)
(27.667 0 8.73374)
(32.7361 0 8.68244)
(33.616 2.30894e-18 6.24833)
(31.3167 0 3.21664)
(28.9618 1.91058e-16 1.48033)
(27.0704 -1.18176e-18 0.566972)
(24.2814 -2.86639e-16 -0.540045)
(19.7462 0 -2.15861)
(14.4747 -1.5543e-18 -3.57222)
(9.72785 0 -4.24805)
(5.70563 0 -4.40468)
(1.85448 0 -4.51682)
(-1.86896 0 -4.68181)
(-4.81237 0 -4.70216)
(-6.46893 -3.06381e-16 -4.50566)
(-6.95811 0 -4.30682)
(-6.71666 0 -4.31413)
(-6.05399 1.90005e-17 -4.56743)
(-5.20692 0 -5.07938)
(-4.35058 -1.16213e-16 -6.13834)
(-4.24282 -1.72475e-16 -8.61263)
(-0.816181 4.2612e-16 -6.38684)
(2.36227 0 -5.92902)
(6.2585 -4.86867e-16 -5.66617)
(11.0382 -4.47734e-16 -5.17552)
(15.3545 0 -4.7878)
(18.6368 0 -4.39364)
(20.2885 0 -3.78455)
(19.795 -1.39018e-16 -3.04858)
(17.2551 0 -2.06876)
(13.526 0 -1.07658)
(10.0699 -1.0572e-15 -0.553937)
(8.07084 2.33221e-15 -0.996119)
(8.26624 0 -2.66525)
(10.9111 0 -5.62257)
(16.0784 0 -10.0412)
(23.4122 0 -15.7215)
(31.974 8.9186e-16 -22.0495)
(40.4571 -1.54127e-15 -27.8444)
(48.384 0 -31.604)
(54.9565 0 -31.5755)
(51.655 5.61481e-16 -33.481)
(44.8602 0 -26.7218)
(34.38 -1.00474e-15 -22.0563)
(24.2254 1.62766e-15 -16.9533)
(20.2199 0 -14.5656)
(20.1916 0 -13.0334)
(18.3138 0 -9.45386)
(9.67221 0 -2.07219)
(-4.62646 0 8.60696)
(-22.7278 6.22155e-15 19.2875)
(-35.6536 0 24.2939)
(-37.2694 1.12022e-14 23.115)
(-25.5701 0 15.3133)
(-15.4742 -1.8545e-18 8.38611)
(4.88763 -1.02045e-17 -1.68074)
(-2.54749 0 1.31896)
(22.9648 5.7128e-15 -23.372)
(89.4353 0 -61.607)
(190.951 0 -83.3498)
(-161.123 -6.76616e-15 84.1291)
(201.498 0 -90.4159)
(-327.214 0 208.29)
(42.2704 0 -70.4966)
(89.8498 0 -35.0941)
(-90.7572 0 52.4448)
(51.9076 0 -31.7751)
(-81.2024 0 53.6201)
(-26.4835 0 9.78334)
(-16.9852 3.08874e-16 9.78089)
(-14.0506 0 5.31863)
(38.6231 0 -32.2722)
(127.809 0 -83.4835)
(157.343 -3.04793e-15 -90.1095)
(80.57 -2.75469e-15 -37.0307)
(-1.34787 -2.67366e-15 10.3111)
(-38.777 2.47556e-15 29.6932)
(-74.8565 -7.91498e-19 48.869)
(-87.6136 -2.24627e-15 52.3582)
(-88.9723 -4.34438e-15 51.7624)
(-90.2703 0 53.2854)
(-104.162 3.43221e-15 58.659)
(-70.1578 2.95797e-15 36.1534)
(-40.7572 0 19.3008)
(-9.35957 1.93476e-15 3.57813)
(-5.31739 1.38665e-15 2.20232)
(-0.976063 1.49837e-15 -1.36756e-05)
(13.7083 0 10.1899)
(14.8572 -2.02133e-17 8.97329)
(13.0939 0 7.3924)
(12.2724 0 6.12124)
(11.4542 -4.95101e-17 4.74217)
(8.30906 -5.52547e-17 2.90315)
(1.96071 5.83195e-17 0.837093)
(-5.25554 -1.67667e-16 -0.885855)
(-9.64151 0 -1.72323)
(-10.848 -4.53113e-17 -1.61116)
(-13.3109 9.40079e-17 -1.33843)
(-20.2184 0 -1.58735)
(-27.3498 -7.91756e-17 -1.84728)
(-27.882 0 -1.52974)
(-23.3191 -3.4687e-17 -1.60877)
(-22.5115 -3.17497e-17 -2.62043)
(-27.0418 -3.08487e-17 -1.78502)
(-29.7076 1.37059e-17 2.47738)
(-28.8379 -2.22637e-17 5.60411)
(-29.7631 0 2.29745)
(-30.5413 5.69409e-17 -0.838469)
(-26.4004 0 3.25468)
(-17.3903 0 13.0088)
(-8.54436 -1.60454e-16 21.1662)
(-3.29524 4.26488e-16 21.7901)
(-1.79261 0 17.2774)
(-10.601 0 2.23192)
(-10.4914 0 1.03194)
(4.1122 -2.32928e-16 10.8949)
(19.717 2.45507e-16 18.578)
(26.9187 -2.06466e-17 29.3773)
(22.2975 1.49562e-16 19.2822)
(23.6799 -2.2448e-16 10.407)
(28.3014 8.22148e-17 9.96435)
(32.7049 -4.4114e-17 9.23354)
(32.9991 4.10513e-18 6.27115)
(30.8988 0 3.16486)
(28.9787 -1.79692e-16 1.554)
(27.1443 -2.28871e-16 0.535403)
(24.182 2.69544e-16 -0.799426)
(19.5944 0 -2.53934)
(14.4916 -3.25461e-16 -3.92194)
(9.94832 -3.18971e-16 -4.5282)
(6.02063 -2.97474e-16 -4.65868)
(2.19804 -2.68017e-16 -4.76183)
(-1.47041 0 -4.90309)
(-4.31458 0 -4.87812)
(-5.89315 3.56716e-18 -4.65884)
(-6.35532 0 -4.47574)
(-6.1114 0 -4.52935)
(-5.44342 1.51144e-17 -4.83594)
(-4.60549 5.12243e-17 -5.40475)
(-3.80619 1.09144e-16 -6.41457)
(-3.47572 -3.5485e-18 -9.10696)
(0.402608 1.54322e-18 -6.59905)
(3.25502 0 -6.46679)
(7.29657 0 -5.91442)
(12.0402 8.38118e-16 -5.3508)
(16.2384 0 -4.88861)
(19.3628 0 -4.40535)
(20.8116 -3.71032e-17 -3.70678)
(20.1031 0 -2.87702)
(17.3533 0 -1.84037)
(13.4321 -8.12005e-16 -0.829931)
(9.86098 9.88526e-16 -0.381758)
(7.91611 -2.18486e-15 -1.04436)
(8.42376 0 -3.0778)
(11.674 1.11061e-15 -6.55034)
(17.7305 0 -11.6784)
(26.2001 0 -18.2056)
(36.1542 -1.67229e-15 -25.4228)
(46.1977 0 -31.9945)
(55.7741 0 -36.3884)
(63.3514 0 -37.1027)
(60.9984 0 -39.2743)
(54.6412 0 -31.847)
(43.1779 9.40867e-16 -26.1325)
(30.7797 -1.32309e-19 -19.7372)
(23.8213 -2.04093e-15 -15.932)
(21.3192 2.46383e-15 -12.9889)
(17.9971 0 -8.10577)
(8.21835 0 0.285595)
(-7.09555 0 11.8494)
(-26.7787 0 23.1936)
(-41.0504 0 28.0871)
(-41.4757 -6.80868e-18 25.4328)
(-26.4389 0 15.2308)
(-14.7997 -4.40938e-15 7.23936)
(4.68817 -1.30029e-17 -1.87021)
(-8.47387 0 4.23428)
(14.857 -5.34138e-15 -21.1618)
(84.1059 0 -63.8697)
(203.192 2.90448e-15 -82.8955)
(-152.982 8.55022e-18 79.2764)
(169.254 0 -67.2073)
(-326.769 0 212.475)
(55.8086 0 -90.7362)
(109.718 0 -41.6901)
(-88.6807 1.00087e-15 52.1724)
(50.6893 0 -31.0595)
(-86.6303 0 58.9877)
(-32.7253 7.79728e-16 11.5661)
(-18.857 0 10.4944)
(-9.04249 -1.2393e-15 0.65715)
(55.1728 1.32073e-15 -45.5614)
(150.542 0 -99.1009)
(167.218 5.67878e-15 -94.1755)
(66.929 8.11837e-18 -25.1798)
(-16.2047 4.99118e-15 21.515)
(-45.3343 -2.31147e-15 35.4196)
(-79.0292 -1.7883e-15 52.4727)
(-91.0467 2.0972e-15 54.7488)
(-95.916 2.02707e-15 55.846)
(-95.2998 1.94974e-15 56.5503)
(-108.364 -3.20405e-15 60.539)
(-72.992 -2.76123e-15 36.3174)
(-43.9237 -2.11144e-15 19.7303)
(-8.89723 -1.81169e-15 2.5335)
(-4.57859 0 1.54529)
(-1.37674 0 0.144968)
(11.7615 0 9.02037)
(12.6336 -1.92869e-17 7.84079)
(11.1424 0 6.43519)
(10.7897 0 5.28621)
(10.0571 0 3.90177)
(6.815 0 2.02206)
(0.740348 -5.17857e-17 0.117862)
(-5.6909 5.1342e-17 -1.21241)
(-9.47406 -4.49937e-17 -1.81836)
(-11.0241 8.85488e-17 -1.92284)
(-14.4808 -8.83714e-17 -1.90398)
(-21.9357 0 -1.79855)
(-28.9567 7.44288e-17 -1.22369)
(-29.8436 0 -0.44088)
(-26.4349 3.26098e-17 -0.864365)
(-25.839 2.27511e-17 -2.42828)
(-29.1606 0 -2.12242)
(-31.6254 0 1.33603)
(-32.3566 7.70009e-18 4.35909)
(-32.2827 0 4.3182)
(-28.9893 0 5.28371)
(-22.8914 -7.37515e-17 9.01571)
(-16.4148 0 14.3703)
(-13.6256 0 15.3139)
(-12.4093 -1.78914e-16 13.006)
(-13.4981 0 6.55275)
(-14.3812 0 0.922827)
(-6.48509 0 5.77299)
(8.16834 4.44986e-16 14.8602)
(18.6651 0 17.3519)
(18.7449 -1.45449e-17 13.5286)
(20.6567 -1.1226e-17 18.1687)
(22.5261 1.04093e-16 13.3812)
(28.9494 -7.72668e-17 11.9949)
(32.3827 7.79394e-17 10.0026)
(32.1736 -5.89856e-18 6.47746)
(30.402 0 3.32436)
(28.9224 0 1.83263)
(27.0556 -2.12476e-16 0.623958)
(23.8993 2.52655e-16 -0.983017)
(19.3022 0 -2.84595)
(14.4099 0 -4.19594)
(10.0789 3.71889e-18 -4.74868)
(6.23982 2.79374e-16 -4.87483)
(2.44814 2.51689e-16 -4.98013)
(-1.15593 4.34375e-16 -5.10073)
(-3.89473 0 -5.02842)
(-5.40364 3.76635e-18 -4.78968)
(-5.85358 0 -4.62395)
(-5.62138 0 -4.71877)
(-4.96067 -1.41861e-17 -5.06564)
(-4.13566 -4.80736e-17 -5.66992)
(-3.3918 0 -6.55796)
(-2.25907 1.55305e-16 -8.41891)
(1.37216 1.30429e-18 -6.74438)
(3.13123 0 -8.2614)
(8.12359 0 -6.01634)
(12.7708 -7.81242e-16 -5.36427)
(16.8392 0 -4.81518)
(19.8126 0 -4.2398)
(21.0841 6.85136e-17 -3.46333)
(20.2058 0 -2.55653)
(17.3022 0 -1.48904)
(13.2387 1.51928e-15 -0.494657)
(9.5719 -9.26478e-16 -0.145116)
(7.65021 1.02314e-15 -1.03984)
(8.39448 0 -3.43463)
(12.1366 -1.04055e-15 -7.40029)
(18.9414 0 -13.1998)
(28.4006 8.87455e-16 -20.5227)
(39.6142 7.83468e-16 -28.5677)
(51.1057 0 -35.8808)
(62.236 0 -40.9162)
(70.9102 -5.44847e-16 -42.3488)
(70.1307 -3.87287e-16 -44.0822)
(64.1589 0 -36.7732)
(52.0921 0 -30.0771)
(37.5396 -2.85193e-15 -22.3514)
(27.2879 1.90988e-15 -16.9499)
(21.8463 -4.6049e-15 -12.3978)
(16.9597 0 -6.17327)
(6.3544 0 3.03459)
(-9.41696 0 15.1782)
(-30.1325 0 26.8897)
(-45.5068 0 31.409)
(-44.544 -8.12322e-18 26.9302)
(-26.1208 0 14.2708)
(-13.3872 0 5.6332)
(3.80201 -1.58919e-17 -1.52647)
(-16.0403 0 8.38306)
(4.13458 -4.99892e-15 -18.75)
(78.5303 0 -67.0935)
(217.47 -2.71449e-15 -84.0401)
(-110.101 1.11425e-17 55.8584)
(142.898 0 -45.9251)
(-355.231 0 232.024)
(68.8276 0 -112.853)
(133.16 0 -49.6121)
(-83.036 -9.41323e-18 50.6601)
(48.2279 9.68485e-16 -29.5015)
(-88.9552 -7.60672e-16 62.8856)
(-38.8859 -7.28259e-16 13.0939)
(-19.9616 0 10.3897)
(-1.18563 1.15736e-15 -5.21371)
(73.2758 -1.23333e-15 -60.2854)
(170.704 0 -113.193)
(169.687 -2.64477e-15 -92.912)
(46.7409 4.78187e-15 -8.79166)
(-28.4056 -2.32913e-15 31.1357)
(-49.4597 0 38.1597)
(-81.4423 1.66904e-15 54.8235)
(-93.9408 0 56.8674)
(-103.166 0 60.0526)
(-99.0621 -1.82004e-15 58.8801)
(-105.613 0 58.3051)
(-75.838 0 36.4185)
(-46.9692 1.97079e-15 19.8499)
(-8.33268 1.69096e-15 1.29474)
(-3.98152 1.21302e-15 0.945975)
(-1.86765 -1.30431e-15 0.361447)
(9.60104 0 6.86429)
(10.099 1.81269e-17 5.83123)
(8.9248 3.65562e-17 4.80133)
(8.83986 0 3.88054)
(8.15934 0 2.68288)
(5.04641 0 1.0377)
(-0.41589 4.86607e-17 -0.527424)
(-5.79729 0 -1.4643)
(-8.76136 4.2268e-17 -1.85331)
(-10.2719 0 -2.07369)
(-14.096 0 -2.17189)
(-21.5975 -7.4897e-17 -1.70304)
(-28.6263 0 -0.421532)
(-30.548 -4.76588e-17 0.741525)
(-28.8971 2.81146e-17 0.146272)
(-28.8705 -2.13666e-17 -1.78524)
(-31.3306 0 -2.09654)
(-33.5347 8.61629e-18 0.523851)
(-34.8647 0 3.61091)
(-33.8603 -3.09344e-17 5.87331)
(-29.4921 0 8.26216)
(-24.4464 6.92719e-17 9.81529)
(-21.4265 -7.18453e-17 10.986)
(-21.7989 0 8.44985)