/*--------------------------------*- C++ -*----------------------------------*\
| =========                 |                                                 |
| \\      /  F ield         | OpenFOAM: The Open Source CFD Toolbox           |
|  \\    /   O peration     | Version:  2412                                  |
|   \\  /    A nd           | Website:  www.openfoam.com                      |
|    \\/     M anipulation  |                                                 |
\*---------------------------------------------------------------------------*/
FoamFile
{
    version     2.0;
    format      ascii;
    arch        "LSB;label=32;scalar=64";
    class       volScalarField;
    location    "0.585";
    object      p;
}
// * * * * * * * * * * * * * * * * * * * * * * * * * * * * * * * * * * * * * //

dimensions      [0 2 -2 0 0 0 0];

internalField   nonuniform List<scalar> 
12600
(
2.59725
-82.3164
-61.4618
-10.0213
34.3942
68.4746
95.6285
118.206
137.507
154.291
169.025
182.1
193.785
204.284
213.755
222.315
230.08
237.127
243.533
249.346
254.666
259.542
263.923
267.819
271.613
274.933
277.953
280.551
283.15
285.492
287.546
289.429
291.162
292.729
294.147
295.445
296.632
297.712
298.697
299.597
300.422
301.177
301.867
302.499
303.079
303.61
304.096
304.539
304.945
305.317
305.66
305.98
306.283
306.576
306.868
307.167
307.475
307.789
308.086
308.319
308.406
308.237
307.698
306.767
305.543
304.277
303.231
302.561
302.223
302.128
302.157
302.089
301.698
300.639
298.951
295.801
291.76
287.817
287.24
292.148
297.572
311.643
305.311
299.325
254.078
146.437
193.993
218.739
196.257
222.346
210.025
208.727
194.272
159.97
115.504
89.8194
106.529
170.405
260.441
357.649
433.442
487.392
514.591
532.083
533.064
542.218
540.746
546.666
541.407
533.355
515.715
514.654
519.836
536.423
537.955
543.125
542.806
543.268
543.649
540.978
63.1822
-15.0598
-25.8208
-0.124883
33.2155
64.4944
91.327
114.144
133.788
150.925
166.05
179.481
191.477
202.237
211.967
220.755
228.695
235.9
242.451
248.396
253.835
258.797
263.264
267.277
271.077
274.471
277.52
280.194
282.839
285.184
287.265
289.183
290.941
292.528
293.968
295.285
296.489
297.584
298.582
299.494
300.33
301.094
301.793
302.434
303.021
303.558
304.049
304.498
304.908
305.284
305.631
305.954
306.259
306.555
306.848
307.146
307.454
307.766
308.063
308.299
308.391
308.229
307.706
306.793
305.586
304.326
303.275
302.591
302.239
302.134
302.157
302.092
301.718
300.694
299.058
295.958
291.944
287.957
287.23
291.94
297.177
311.447
305.481
299.5
255.959
147.834
193.238
218.694
196.246
222.096
210.155
208.917
194.969
161.132
116.59
90.1122
105.683
168.475
258.019
355.395
431.751
486.335
514.009
531.837
532.938
542.119
540.685
546.647
541.557
533.662
515.949
514.63
519.589
536.213
537.876
543.07
542.802
543.258
543.669
541.003
89.5355
31.9571
6.43894
14.1864
38.1454
65.2375
90.379
112.617
132.129
149.299
164.49
178.014
190.119
200.995
210.805
219.674
227.732
235.033
241.656
247.673
253.175
258.185
262.707
266.857
270.656
274.155
277.205
279.973
282.62
284.967
287.075
289.018
290.792
292.394
293.85
295.181
296.396
297.502
298.509
299.429
300.272
301.043
301.747
302.392
302.983
303.525
304.019
304.471
304.885
305.264
305.613
305.938
306.244
306.541
306.835
307.133
307.44
307.752
308.048
308.283
308.378
308.225
307.713
306.812
305.612
304.355
303.299
302.609
302.25
302.138
302.158
302.095
301.732
300.73
299.117
296.054
292.063
288.052
287.218
291.826
296.951
311.311
305.608
299.648
256.95
148.616
192.811
218.676
196.233
221.956
210.232
209.02
195.3
161.721
117.169
90.279
105.213
167.667
257.02
354.443
431.009
485.857
513.748
531.72
532.88
542.073
540.654
546.638
541.612
533.788
516.053
514.612
519.503
536.128
537.842
543.046
542.8
543.253
543.678
541.013
98.2748
62.3004
36.6998
33.3642
47.0633
68.2003
90.5686
111.613
130.647
147.665
162.857
176.452
188.657
199.646
209.573
218.558
226.706
234.093
240.836
246.934
252.501
257.57
262.175
266.387
270.16
273.707
276.832
279.73
282.348
284.703
286.851
288.816
290.609
292.231
293.706
295.053
296.281
297.398
298.417
299.347
300.199
300.977
301.688
302.34
302.937
303.483
303.982
304.438
304.855
305.237
305.589
305.916
306.225
306.523
306.818
307.116
307.423
307.734
308.03
308.267
308.366
308.221
307.722
306.835
305.646
304.393
303.332
302.632
302.263
302.142
302.159
302.1
301.751
300.784
299.204
296.183
292.212
288.159
287.199
291.619
296.634
311.155
305.786
299.822
258.299
149.432
192.179
218.668
196.214
221.761
210.347
209.189
195.893
162.659
118.001
90.4328
104.431
165.963
254.915
352.549
429.614
484.999
513.279
531.525
532.778
541.993
540.605
546.628
541.745
534.047
516.239
514.581
519.284
535.954
537.779
543.001
542.798
543.245
543.695
541.034
105.943
85.7222
64.9746
55.4017
59.8421
74.0814
92.5601
111.673
129.818
146.461
161.523
175.105
187.355
198.417
208.428
217.499
225.734
233.214
240.015
246.198
251.841
256.959
261.628
265.908
269.717
273.271
276.472
279.404
282.061
284.469
286.624
288.617
290.427
292.068
293.56
294.922
296.164
297.294
298.324
299.264
300.124
300.91
301.628
302.286
302.889
303.44
303.944
304.404
304.824
305.21
305.565
305.895
306.205
306.505
306.8
307.099
307.405
307.715
308.011
308.25
308.354
308.219
307.732
306.859
305.681
304.43
303.364
302.654
302.275
302.147
302.16
302.105
301.771
300.827
299.291
296.316
292.366
288.268
287.173
291.457
296.312
310.985
305.942
299.978
259.369
149.967
191.496
218.671
196.19
221.567
210.465
209.342
196.412
163.514
118.75
90.5228
103.632
164.556
253.252
350.991
428.437
484.26
512.881
531.353
532.69
541.922
540.56
546.618
541.85
534.252
516.393
514.546
519.129
535.816
537.727
542.965
542.796
543.238
543.71
541.051
114.978
103.861
88.3494
76.9832
75.4311
83.2163
96.8697
113.105
129.769
145.716
160.478
173.954
186.193
197.292
207.362
216.502
224.808
232.359
239.234
245.489
251.187
256.362
261.087
265.408
269.275
272.844
276.121
279.084
281.713
284.17
286.424
288.402
290.238
291.899
293.409
294.786
296.042
297.184
298.226
299.176
300.045
300.839
301.565
302.23
302.838
303.394
303.903
304.367
304.792
305.181
305.539
305.871
306.184
306.485
306.782
307.08
307.386
307.696
307.992
308.232
308.341
308.217
307.744
306.885
305.717
304.469
303.397
302.677
302.288
302.152
302.162
302.111
301.794
300.88
299.386
296.458
292.527
288.375
287.134
291.268
295.952
310.798
306.087
300.106
260.214
150.171
190.665
218.671
196.162
221.356
210.597
209.533
197.021
164.438
119.49
90.5086
102.641
162.813
251.067
349.042
427.005
483.383
512.411
531.158
532.587
541.841
540.509
546.61
541.987
534.509
516.57
514.499
518.908
535.643
537.665
542.921
542.795
543.23
543.729
541.072
123.718
117.197
106.217
96.1341
91.9582
94.8864
103.679
116.298
130.744
145.511
159.717
172.963
185.133
196.241
206.356
215.557
223.927
231.543
238.482
244.801
250.558
255.786
260.556
264.921
268.851
272.446
275.757
278.75
281.435
283.89
286.129
288.225
290.044
291.724
293.253
294.646
295.915
297.07
298.124
299.085
299.963
300.765
301.499
302.17
302.784
303.346
303.86
304.329
304.758
305.15
305.512
305.847
306.162
306.464
306.762
307.06
307.366
307.675
307.971
308.214
308.329
308.216
307.758
306.914
305.755
304.509
303.43
302.7
302.301
302.158
302.165
302.118
301.819
300.934
299.488
296.608
292.694
288.478
287.078
291.06
295.55
310.586
306.281
300.218
260.692
150.086
189.635
218.681
196.13
221.129
210.739
209.702
197.649
165.344
120.144
90.3473
101.487
160.777
248.865
347.049
425.528
482.475
511.929
530.956
532.482
541.757
540.454
546.602
542.116
534.761
516.742
514.441
518.697
535.473
537.603
542.876
542.793
543.222
543.749
541.093
131.649
127.627
120.152
112.338
107.653
107.68
112.558
121.481
133.124
146.108
159.342
172.135
184.134
195.213
205.364
214.627
223.067
230.752
237.756
244.137
249.949
255.232
260.054
264.448
268.435
272.064
275.396
278.419
281.138
283.631
285.9
287.93
289.866
291.555
293.092
294.502
295.785
296.953
298.018
298.989
299.877
300.688
301.429
302.108
302.728
303.296
303.815
304.288
304.722
305.118
305.483
305.821
306.138
306.442
306.74
307.039
307.344
307.653
307.949
308.195
308.317
308.215
307.773
306.944
305.795
304.55
303.465
302.723
302.314
302.163
302.168
302.127
301.846
300.993
299.597
296.766
292.864
288.573
286.998
290.812
295.093
310.339
306.524
300.342
260.789
149.891
188.327
218.709
196.094
220.882
210.892
209.928
198.3
166.228
120.665
89.9912
100.101
158.658
246.328
344.798
423.877
481.47
511.401
530.738
532.367
541.666
540.395
546.594
542.266
535.036
516.92
514.368
518.447
535.282
537.535
542.827
542.792
543.213
543.771
541.116
139.096
136.703
131.593
125.75
121.534
120.29
122.588
128.387
137.114
147.851
159.613
171.58
183.197
194.153
204.313
213.644
222.17
229.943
237.027
243.479
249.353
254.695
259.566
263.999
268.031
271.694
275.046
278.096
280.851
283.366
285.66
287.742
289.606
291.369
292.943
294.353
295.652
296.832
297.909
298.891
299.788
300.608
301.357
302.042
302.669
303.243
303.767
304.246
304.683
305.084
305.452
305.793
306.113
306.418
306.717
307.016
307.321
307.629
307.926
308.175
308.305
308.215
307.789
306.975
305.836
304.591
303.492
302.745
302.327
302.168
302.171
302.137
301.876
301.058
299.714
296.932
293.034
288.653
286.888
290.519
294.565
310.044
306.869
300.489
260.532
149.822
186.645
218.749
196.057
220.613
211.052
210.131
198.968
167.022
120.993
89.3938
98.4638
156.171
243.589
342.359
422.084
480.378
510.833
530.503
532.243
541.568
540.33
546.584
542.416
535.317
517.097
514.278
518.186
535.078
537.464
542.776
542.791
543.204
543.795
541.141
146.228
144.926
141.287
136.877
133.46
131.946
132.814
136.351
142.527
150.92
160.842
171.56
182.455
193.079
203.15
212.525
221.152
229.04
236.234
242.785
248.742
254.157
259.085
263.564
267.638
271.338
274.713
277.788
280.573
283.111
285.423
287.523
289.435
291.158
292.756
294.224
295.511
296.709
297.798
298.79
299.697
300.525
301.282
301.974
302.608
303.188
303.717
304.201
304.643
305.048
305.42
305.764
306.086
306.393
306.693
306.992
307.296
307.603
307.901
308.153
308.291
308.215
307.807
307.009
305.878
304.632
303.537
302.765
302.338
302.174
302.176
302.149
301.909
301.127
299.839
297.102
293.2
288.711
286.737
290.167
293.947
309.689
307.313
300.637
259.935
150.003
184.469
218.812
196.021
220.321
211.22
210.358
199.633
167.674
121.063
88.5152
96.5466
153.465
240.525
339.656
420.101
479.173
510.21
530.247
532.109
541.462
540.256
546.572
542.577
535.611
517.275
514.167
517.893
534.856
537.387
542.72
542.79
543.194
543.821
541.167
152.979
152.392
149.724
146.361
143.728
142.375
142.577
144.67
148.895
155.186
163.181
172.358
182.174
192.151
201.92
211.228
219.924
227.945
235.287
241.976
248.055
253.573
258.582
263.125
267.25
270.992
274.396
277.497
280.309
282.867
285.197
287.315
289.239
290.994
292.582
294.033
295.413
296.588
297.684
298.687
299.603
300.44
301.204
301.904
302.544
303.13
303.665
304.154
304.602
305.011
305.386
305.734
306.058
306.367
306.667
306.966
307.269
307.575
307.874
308.13
308.276
308.215
307.824
307.043
305.92
304.673
303.561
302.784
302.348
302.179
302.182
302.163
301.945
301.201
299.97
297.276
293.357
288.741
286.532
289.745
293.221
309.25
307.806
300.746
258.935
150.312
181.65
218.903
195.99
220.007
211.394
210.576
200.268
168.111
120.819
87.3189
94.3245
150.389
237.153
336.682
417.916
477.84
509.526
529.967
531.962
541.346
540.172
546.556
542.739
535.911
517.452
514.032
517.575
534.615
537.303
542.66
542.789
543.183
543.85
541.195
159.326
159.237
157.289
154.699
152.683
151.604
151.57
152.838
155.709
160.313
166.544
174.108
182.61
191.637
200.815
209.836
218.472
226.577
234.077
240.946
247.197
252.866
257.999
262.64
266.841
270.642
274.088
277.22
280.059
282.638
284.984
287.115
289.056
290.823
292.431
293.893
295.201
296.473
297.578
298.583
299.508
300.353
301.125
301.832
302.478
303.07
303.611
304.106
304.558
304.972
305.351
305.702
306.029
306.339
306.64
306.938
307.24
307.545
307.844
308.104
308.259
308.213
307.842
307.077
305.963
304.712
303.592
302.8
302.355
302.183
302.187
302.178
301.978
301.279
300.107
297.45
293.498
288.732
286.265
289.239
292.368
308.724
308.299
300.811
257.369
150.414
178.02
219.024
195.97
219.675
211.577
210.796
200.839
168.257
120.216
85.7734
91.7749
146.975
233.4
333.389
415.497
476.357
508.766
529.657
531.8
541.218
540.075
546.533
542.902
536.218
517.629
513.875
517.226
534.351
537.211
542.594
542.787
543.171
543.882
541.225
165.324
165.599
164.197
162.173
160.611
159.799
159.739
160.574
162.565
165.92
170.688
176.752
183.878
191.766
200.096
208.569
216.925
224.963
232.547
239.591
246.051
251.927
257.242
262.036
266.356
270.25
273.764
276.943
279.817
282.421
284.785
286.933
288.884
290.662
292.281
293.757
295.104
296.311
297.458
298.489
299.411
300.265
301.044
301.758
302.411
303.009
303.556
304.056
304.513
304.931
305.315
305.669
305.998
306.31
306.611
306.908
307.208
307.512
307.811
308.074
308.239
308.209
307.858
307.111
306.005
304.749
303.617
302.812
302.36
302.186
302.194
302.196
302.035
301.363
300.249
297.621
293.616
288.675
285.924
288.634
291.371
308.1
308.771
300.88
255.017
149.864
173.385
219.167
195.972
219.334
211.772
211.009
201.301
168.027
119.224
83.8523
88.8682
143.138
229.237
329.744
412.815
474.705
507.915
529.31
531.621
541.077
539.962
546.501
543.061
536.526
517.804
513.701
516.842
534.062
537.11
542.522
542.785
543.157
543.917
541.258
171.016
171.547
170.556
168.954
167.737
167.155
167.147
167.765
169.209
171.689
175.324
180.111
185.944
192.64
199.969
207.676
215.517
223.274
230.775
237.89
244.528
250.634
256.187
261.2
265.705
269.745
273.371
276.63
279.562
282.206
284.597
286.763
288.729
290.52
292.139
293.625
294.977
296.212
297.33
298.367
299.334
300.177
300.963
301.683
302.342
302.946
303.499
304.004
304.466
304.889
305.277
305.634
305.966
306.28
306.581
306.877
307.175
307.476
307.774
308.041
308.215
308.202
307.872
307.144
306.046
304.785
303.638
302.818
302.36
302.187
302.2
302.215
302.075
301.452
300.395
297.783
293.703
288.559
285.496
287.918
290.216
307.36
309.205
301.039
251.636
147.937
167.541
219.317
196.012
219
211.99
211.206
201.591
167.36
117.812
81.532
85.5648
138.833
224.594
325.696
409.834
472.858
506.954
528.921
531.421
540.92
539.827
546.457
543.212
536.834
517.978
513.503
516.421
533.743
536.998
542.442
542.782
543.142
543.956
541.293
176.422
177.124
176.445
175.177
174.229
173.83
173.89
174.403
175.511
177.399
180.197
183.959
188.668
194.236
200.521
207.336
214.48
221.749
228.962
235.973
242.661
248.933
254.723
259.999
264.757
269.018
272.821
276.215
279.247
281.963
284.401
286.599
288.584
290.385
292.021
293.508
294.865
296.104
297.238
298.266
299.204
300.108
300.888
301.609
302.274
302.882
303.44
303.951
304.418
304.846
305.238
305.599
305.934
306.248
306.549
306.843
307.138
307.437
307.732
308.002
308.185
308.19
307.883
307.175
306.086
304.818
303.654
302.82
302.354
302.184
302.207
302.236
302.125
301.545
300.543
297.933
293.75
288.372
284.97
287.067
288.887
306.478
309.571
301.353
247.02
145.183
160.274
219.437
196.108
218.695
212.242
211.39
201.642
166.19
115.954
78.7925
81.8107
133.991
219.405
321.191
406.515
470.794
505.862
528.478
531.198
540.744
539.667
546.398
543.35
537.138
518.152
513.28
515.962
533.391
536.873
542.353
542.778
543.125
543.998
541.332
181.561
182.373
181.939
180.938
180.2
179.942
180.064
180.528
181.43
182.917
185.111
188.087
191.873
196.445
201.735
207.626
213.969
220.598
227.346
234.062
240.621
246.914
252.847
258.351
263.384
267.926
271.986
275.593
278.792
281.631
284.157
286.414
288.438
290.262
291.91
293.407
294.772
296.006
297.145
298.184
299.131
299.985
300.808
301.542
302.205
302.82
303.382
303.898
304.37
304.802
305.199
305.563
305.9
306.216
306.516
306.808
307.099
307.393
307.686
307.957
308.149
308.171
307.889
307.204
306.124
304.848
303.666
302.808
302.34
302.177
302.212
302.258
302.177
301.643
300.691
298.063
293.747
288.104
284.334
286.036
287.365
305.405
309.808
301.815
241.023
139.501
151.401
219.466
196.277
218.445
212.552
211.56
201.39
164.476
113.614
75.6144
77.5331
128.534
213.583
316.161
402.811
468.487
504.613
527.968
530.944
540.546
539.474
546.321
543.469
537.435
518.329
513.032
515.461
533.001
536.735
542.254
542.771
543.105
544.043
541.374
186.455
187.337
187.091
186.304
185.731
185.582
185.757
186.198
186.966
188.179
189.941
192.327
195.381
199.119
203.522
208.53
214.048
219.954
226.11
232.38
238.638
244.778
250.7
256.316
261.555
266.367
270.723
274.619
278.071
281.112
283.79
286.155
288.254
290.126
291.803
293.316
294.686
295.932
297.068
298.105
299.057
299.93
300.719
301.461
302.15
302.757
303.324
303.844
304.321
304.758
305.159
305.527
305.867
306.183
306.482
306.771
307.057
307.345
307.633
307.904
308.104
308.145
307.888
307.228
306.16
304.875
303.673
302.81
302.319
302.163
302.214
302.281
302.232
301.744
300.838
298.167
293.685
287.74
283.573
284.809
285.616
304.068
309.803
302.388
233.736
132.164
140.903
219.308
196.531
218.279
212.938
211.715
200.759
162.204
110.75
71.9751
72.6456
122.389
207.029
310.524
398.668
465.906
503.175
527.366
530.656
540.326
539.242
546.222
543.565
537.723
518.51
512.762
514.916
532.57
536.58
542.143
542.763
543.082
544.092
541.42
191.124
192.04
191.94
191.325
190.885
190.82
191.038
191.467
192.144
193.164
194.614
196.56
199.047
202.11
205.757
209.97
214.699
219.864
225.363
231.085
236.914
242.748
248.496
254.069
259.384
264.372
268.978
273.17
276.929
280.258
283.179
285.732
287.965
289.929
291.669
293.219
294.61
295.866
297.006
298.048
298.991
299.864
300.665
301.393
302.065
302.711
303.272
303.792
304.273
304.714
305.119
305.491
305.833
306.15
306.448
306.733
307.012
307.292
307.574
307.843
308.049
308.108
307.88
307.248
306.195
304.902
303.674
302.78
302.286
302.14
302.211
302.303
302.291
301.848
300.981
298.239
293.555
287.266
282.669
283.352
283.591
302.336
309.399
302.948
225.639
122.852
129.137
218.822
196.877
218.209
213.391
211.851
199.682
159.378
107.314
67.8399
67.0495
115.47
199.627
304.181
394.019
463.007
501.512
526.639
530.328
540.081
538.965
546.096
543.634
537.999
518.7
512.475
514.329
532.092
536.406
542.017
542.751
543.055
544.144
541.47
195.582
196.508
196.52
196.045
195.712
195.713
195.962
196.382
196.995
197.875
199.095
200.71
202.762
205.287
208.311
211.839
215.853
220.308
225.14
230.263
235.583
241.004
246.444
251.825
257.068
262.095
266.842
271.253
275.29
278.929
282.161
284.995
287.458
289.592
291.447
293.075
294.516
295.8
296.954
297.999
298.95
299.818
300.611
301.345
302.018
302.625
303.217
303.747
304.224
304.671
305.079
305.454
305.799
306.117
306.414
306.694
306.965
307.236
307.508
307.772
307.983
308.06
307.861
307.262
306.227
304.928
303.674
302.754
302.245
302.106
302.201
302.323
302.351
301.955
301.119
298.275
293.35
286.666
281.596
281.638
281.226
300.058
308.388
303.267
217.974
112.254
117.282
217.823
197.311
218.264
214.087
211.959
198.093
156.009
103.256
63.1583
60.642
107.696
191.247
297.012
388.779
459.733
499.589
525.744
529.963
539.81
538.635
545.938
543.672
538.264
518.905
512.178
513.7
531.562
536.209
541.874
542.736
543.025
544.2
541.525
199.844
200.762
200.857
200.498
200.252
200.302
200.573
200.986
201.55
202.325
203.372
204.735
206.451
208.554
211.072
214.026
217.416
221.226
225.418
229.935
234.708
239.657
244.701
249.775
254.811
259.74
264.491
269.004
273.225
277.114
280.641
283.791
286.562
288.968
291.036
292.813
294.351
295.698
296.891
297.957
298.915
299.785
300.581
301.304
301.976
302.596
303.16
303.692
304.193
304.632
305.041
305.42
305.767
306.085
306.38
306.654
306.917
307.176
307.435
307.691
307.904
307.997
307.83
307.268
306.258
304.956
303.672
302.718
302.181
302.058
302.182
302.339
302.414
302.064
301.25
298.273
293.062
285.925
280.323
279.646
278.442
297.064
306.542
302.996
212.524
102.211
107.434
216.142
197.813
218.342
214.782
212.026
195.946
152.109
98.5263
57.852
53.316
98.9563
181.751
288.868
382.839
456.01
497.374
524.643
529.57
539.513
538.249
545.736
543.678
538.517
519.133
511.883
513.035
530.974
535.987
541.712
542.714
542.992
544.26
541.585
203.921
204.818
204.976
204.711
204.535
204.623
204.908
205.313
205.838
206.531
207.444
208.612
210.067
211.837
213.95
216.431
219.293
222.535
226.141
230.078
234.3
238.748
243.353
248.049
252.781
257.494
262.124
266.611
270.897
274.931
278.673
282.091
285.166
287.887
290.257
292.293
294.025
295.5
296.772
297.888
298.877
299.761
300.559
301.285
301.952
302.559
303.13
303.652
304.128
304.594
305.009
305.385
305.735
306.056
306.348
306.617
306.869
307.113
307.357
307.599
307.81
307.918
307.785
307.265
306.288
304.986
303.676
302.68
302.134
301.996
302.15
302.35
302.48
302.177
301.375
298.232
292.686
285.024
278.809
277.362
275.157
293.195
303.651
301.69
210.188
94.112
101.476
213.67
198.311
218.572
215.585
212.009
193.192
147.665
93.0817
51.8225
44.9538
89.1225
170.984
279.575
376.065
451.752
494.843
523.302
529.152
539.187
537.806
545.473
543.65
538.762
519.395
511.608
512.343
530.323
535.733
541.526
542.684
542.954
544.323
541.649
207.825
208.691
208.896
208.707
208.589
208.705
208.998
209.393
209.885
210.513
211.319
212.334
213.583
215.089
216.877
218.973
221.394
224.149
227.236
230.641
234.336
238.281
242.426
246.713
251.086
255.501
259.909
264.258
268.491
272.556
276.406
280.001
283.309
286.308
288.983
291.33
293.355
295.076
296.522
297.743
298.793
299.718
300.539
301.274
301.94
302.549
303.107
303.627
304.11
304.551
304.969
305.363
305.71
306.026
306.317
306.581
306.822
307.05
307.274
307.499
307.701
307.821
307.722
307.251
306.315
305.024
303.683
302.64
302.049
301.918
302.103
302.354
302.552
302.296
301.498
298.155
292.224
283.957
277.016
274.61
271.35
288.338
299.558
299.024
210.172
88.2139
99.073
210.418
198.723
218.474
216.415
211.877
189.823
142.649
86.8636
44.9361
35.4033
78.0154
158.787
268.932
368.294
446.858
491.955
521.679
528.676
538.828
537.311
545.128
543.586
539.001
519.707
511.376
511.645
529.603
535.442
541.313
542.641
542.912
544.389
541.719
211.566
212.395
212.632
212.506
212.435
212.571
212.867
213.252
213.715
214.288
215.008
215.9
216.984
218.278
219.806
221.588
223.645
225.99
228.629
231.559
234.768
238.233
241.918
245.781
249.773
253.846
257.965
262.09
266.172
270.163
274.014
277.682
281.129
284.325
287.245
289.873
292.199
294.222
295.952
297.404
298.609
299.616
300.483
301.25
301.934
302.547
303.104
303.621
304.084
304.532
304.942
305.317
305.678
306.009
306.297
306.551
306.779
306.989
307.19
307.391
307.579
307.705
307.64
307.224
306.339
305.068
303.703
302.605
301.968
301.824
302.041
302.353
302.636
302.426
301.627
298.051
291.672
282.7
274.889
272.034
266.929
282.422
294.182
294.787
210.778
83.2267
97.5319
206.492
198.98
218.459
217.199
211.532
185.81
137.001
79.8377
37.0699
24.4899
65.4212
144.994
256.717
359.336
441.199
488.631
519.714
528.049
538.434
536.773
544.67
543.481
539.238
520.089
511.23
510.969
528.816
535.105
541.065
542.578
542.865
544.455
541.795
215.154
215.942
216.2
216.125
216.092
216.243
216.538
216.91
217.347
217.873
218.521
219.313
220.263
221.387
222.703
224.23
225.987
227.99
230.247
232.765
235.539
238.559
241.805
245.246
248.848
252.566
256.361
260.204
264.063
267.894
271.654
275.298
278.788
282.088
285.168
288.005
290.58
292.881
294.903
296.649
298.127
299.353
300.355
301.182
301.897
302.535
303.108
303.622
304.089
304.521
304.925
305.307
305.656
305.973
306.268
306.528
306.747
306.934
307.108
307.279
307.445
307.571
307.537
307.182
306.361
305.123
303.74
302.577
301.883
301.72
301.966
302.352
302.742
302.579
301.776
297.934
291.055
281.283
272.407
268.279
261.795
275.435
287.523
289.022
210.94
78.7048
95.106
202.111
198.982
217.931
217.846
210.952
181.214
130.687
71.9284
28.0394
12.2999
51.103
129.428
242.689
348.962
434.596
484.743
517.35
527.154
538.014
536.199
544.078
543.327
539.476
520.567
511.227
510.365
527.971
534.713
540.77
542.486
542.811
544.521
541.876
218.597
219.341
219.612
219.579
219.576
219.737
220.027
220.386
220.798
221.284
221.872
222.58
223.419
224.403
225.546
226.865
228.376
230.094
232.03
234.193
236.587
239.208
242.046
245.085
248.299
251.656
255.119
258.656
262.244
265.853
269.448
272.989
276.435
279.751
282.904
285.866
288.614
291.13
293.4
295.416
297.177
298.686
299.951
300.987
301.817
302.493
303.081
303.616
304.097
304.529
304.924
305.291
305.643
305.968
306.255
306.504
306.716
306.893
307.034
307.17
307.306
307.423
307.415
307.125
306.379
305.187
303.797
302.572
301.791
301.6
301.876
302.357
302.878
302.775
301.971
297.839
290.378
279.659
269.584
264.323
255.928
267.466
279.649
281.889
211.193
75.77
93.0609
197.53
198.714
216.991
218.195
209.984
176.028
123.658
63.1425
17.6784
-1.38938
34.8742
111.9
226.585
336.903
426.825
480.145
514.581
525.927
537.591
535.588
543.334
543.051
539.713
521.171
511.443
509.891
527.094
534.259
540.413
542.353
542.748
544.578
541.964
221.903
222.601
222.878
222.879
222.9
223.068
223.351
223.696
224.085
224.535
225.071
225.708
226.455
227.323
228.324
229.47
230.778
232.259
233.926
235.789
237.854
240.124
242.595
245.261
248.104
251.104
254.234
257.461
260.758
264.106
267.483
270.856
274.189
277.446
280.594
283.601
286.443
289.098
291.549
293.78
295.782
297.55
299.086
300.393
301.48
302.357
303.042
303.59
304.069
304.522
304.934
305.302
305.64
305.951
306.247
306.502
306.703
306.857
306.978
307.074
307.17
307.266
307.275
307.052
306.393
305.264
303.876
302.586
301.723
301.471
301.798
302.391
303.069
303.041
302.244
297.79
289.708
277.963
266.474
259.856
249.506
258.525
270.684
273.604
211.933
75.7271
93.7001
193.25
198.178
215.468
218.173
208.629
170.405
115.969
53.4015
5.76486
-16.7959
16.4588
92.1946
208.124
322.854
417.64
474.708
511.455
524.389
537.167
534.927
542.443
542.861
539.948
521.926
511.941
509.64
526.23
533.738
539.977
542.166
542.668
544.624
542.055
225.079
225.731
226.01
226.037
226.078
226.249
226.524
226.853
227.22
227.639
228.129
228.705
229.375
230.145
231.027
232.031
233.169
234.453
235.896
237.505
239.289
241.254
243.401
245.729
248.228
250.888
253.689
256.606
259.614
262.688
265.813
268.971
272.135
275.272
278.349
281.334
284.2
286.922
289.481
291.859
294.043
296.023
297.79
299.344
300.686
301.822
302.76
303.505
304.067
304.503
304.894
305.288
305.652
305.968
306.246
306.496
306.703
306.85
306.933
306.997
307.046
307.111
307.127
306.967
306.404
305.355
303.98
302.627
301.668
301.364
301.7
302.469
303.355
303.428
302.656
297.871
289.069
276.075
262.994
254.905
242.587
248.55
260.775
264.502
212.963
79.249
96.6898
190.042
197.502
213.338
217.671
206.713
164.364
107.652
42.841
-7.71718
-33.9623
-4.24542
70.0829
187.011
306.482
406.796
468.326
507.971
522.542
536.664
534.186
541.427
542.205
540.179
522.867
512.761
509.677
525.428
533.156
539.444
541.916
542.56
544.645
542.152
228.131
228.739
229.015
229.063
229.12
229.291
229.556
229.87
230.216
230.606
231.056
231.579
232.182
232.87
233.652
234.536
235.533
236.653
237.906
239.302
240.848
242.551
244.416
246.444
248.632
250.975
253.462
256.075
258.796
261.599
264.465
267.383
270.336
273.303
276.255
279.16
281.99
284.717
287.32
289.78
292.082
294.212
296.16
297.918
299.48
300.847
302.023
303.014
303.826
304.461
304.922
305.266
305.59
305.945
306.27
306.527
306.716
306.857
306.928
306.952
306.947
306.973
306.981
306.878
306.415
305.46
304.111
302.696
301.637
301.271
301.657
302.635
303.803
304.009
303.277
298.101
288.594
274.347
259.413
249.499
235.027
237.707
250.078
255.078
214.271
87.9156
106.121
189.105
196.915
210.767
216.707
204.348
158.201
98.9291
31.4186
-22.9457
-53.0378
-27.6867
45.2777
162.944
287.434
393.998
460.833
503.944
520.283
535.89
533.344
540.343
541.353
540.391
523.97
513.956
510.068
524.741
532.534
538.8
541.603
542.41
544.627
542.247
231.067
231.632
231.901
231.965
232.035
232.205
232.459
232.758
233.084
233.447
233.861
234.338
234.883
235.501
236.197
236.98
237.859
238.841
239.935
241.151
242.495
243.974
245.595
247.361
249.273
251.329
253.523
255.847
258.286
260.823
263.436
266.109
268.832
271.594
274.375
277.151
279.893
282.573
285.167
287.654
290.015
292.236
294.306
296.214
297.952
299.514
300.896
302.101
303.133
304
304.708
305.258
305.648
305.921
306.185
306.503
306.766
306.911
306.949
306.943
306.903
306.878
306.858
306.802
306.442
305.593
304.273
302.795
301.625
301.194
301.669
302.917
304.443
304.897
304.217
298.683
288.356
272.525
255.591
243.842
227.404
226.414
238.748
245.741
215.516
102.781
121.811
191.583
196.557
207.951
215.343
201.47
151.99
89.9691
19.4814
-39.6612
-73.9387
-53.9053
17.575
135.656
265.35
378.88
451.944
499.094
517.469
534.632
532.417
539.24
540.152
540.602
525.2
515.528
510.844
524.206
531.896
538.051
541.226
542.2
544.564
542.342
233.892
234.415
234.676
234.753
234.832
235
235.243
235.525
235.833
236.171
236.553
236.99
237.484
238.041
238.664
239.361
240.139
241.004
241.965
243.028
244.201
245.49
246.902
248.44
250.109
251.909
253.839
255.893
258.064
260.34
262.706
265.143
267.635
270.176
272.758
275.364
277.973
280.559
283.097
285.562
287.935
290.198
292.337
294.342
296.202
297.912
299.464
300.853
302.077
303.139
304.046
304.811
305.444
305.938
306.286
306.488
306.656
306.905
307.047
307.022
306.872
306.816
306.799
306.775
306.49
305.746
304.478
302.931
301.615
301.126
301.724
303.362
305.43
306.168
305.564
299.636
288.543
271.327
252.09
237.874
219.32
214.528
226.936
236.203
216.184
114.087
138.574
195.742
196.962
205.259
213.751
198.402
146.255
81.2127
7.09128
-57.9268
-96.7241
-82.2088
-13.2376
104.942
239.901
361.101
441.339
493.235
514.038
532.812
531.416
538.132
538.609
540.804
526.517
517.467
512.03
523.858
531.275
537.232
540.79
541.912
544.437
542.429
236.612
237.095
237.346
237.432
237.519
237.683
237.915
238.182
238.471
238.786
239.14
239.54
239.99
240.493
241.054
241.677
242.368
243.135
243.982
244.916
245.944
247.071
248.304
249.647
251.104
252.679
254.372
256.181
258.103
260.131
262.255
264.461
266.733
269.057
271.429
273.841
276.282
278.733
281.17
283.571
285.912
288.174
290.34
292.397
294.334
296.143
297.816
299.348
300.734
301.97
303.055
303.996
304.802
305.494
306.085
306.557
306.862
306.92
306.899
307.037
307.058
306.925
306.724
306.743
306.639
306.025
304.714
303.049
301.578
301.032
301.842
303.963
306.632
307.905
307.529
301.334
289.357
270.267
248.64
232.195
211.876
203.485
214.765
226.254