/*--------------------------------*- C++ -*----------------------------------*\
| =========                 |                                                 |
| \\      /  F ield         | OpenFOAM: The Open Source CFD Toolbox           |
|  \\    /   O peration     | Version:  2412                                  |
|   \\  /    A nd           | Website:  www.openfoam.com                      |
|    \\/     M anipulation  |                                                 |
\*---------------------------------------------------------------------------*/
FoamFile
{
    version     2.0;
    format      ascii;
    arch        "LSB;label=32;scalar=64";
    class       volVectorField;
    location    "0.585";
    object      U_0;
}
// * * * * * * * * * * * * * * * * * * * * * * * * * * * * * * * * * * * * * //

dimensions      [0 1 -1 0 0 0 0];

internalField   nonuniform List<vector> 
12600
(
(19.6222 0 -0.757899)
(7.98177 -3.64325e-20 -1.66505)
(3.40523 -1.7077e-20 -1.70806)
(1.7412 0 -1.26554)
(1.10082 -2.03397e-22 -0.847219)
(0.759663 0 -0.576998)
(0.530848 -3.096e-20 -0.404255)
(0.365347 0 -0.285463)
(0.241901 0 -0.198804)
(0.148114 0 -0.133472)
(0.0751118 0 -0.0841389)
(0.0178637 -9.90119e-20 -0.0456838)
(-0.0271569 -1.01247e-19 -0.0152452)
(-0.0626894 0 0.0091577)
(-0.0907411 2.05733e-19 0.0283198)
(-0.112461 0 0.0434623)
(-0.12913 2.97307e-22 0.0556226)
(-0.141877 0 0.0651489)
(-0.151186 9.96419e-20 0.0723336)
(-0.157632 0 0.0777122)
(-0.161825 0 0.0815478)
(-0.163977 0 0.0840387)
(-0.164588 3.67048e-19 0.085434)
(-0.163657 -3.57693e-19 0.0861108)
(-0.161588 -1.54858e-22 0.0860267)
(-0.158697 1.68892e-19 0.0852457)
(-0.155133 0 0.0838821)
(-0.150889 0 0.0821656)
(-0.146151 0 0.0801104)
(-0.141152 -2.96651e-19 0.0777627)
(-0.135905 -5.72839e-19 0.07521)
(-0.130493 0 0.0725039)
(-0.125004 0 0.0696889)
(-0.119493 -2.56753e-19 0.0668155)
(-0.114016 -2.47219e-19 0.0639245)
(-0.108596 0 0.0610296)
(-0.103262 0 0.0581535)
(-0.098073 -4.39773e-19 0.0553342)
(-0.093039 0 0.0525824)
(-0.0881781 6.69012e-23 0.049911)
(-0.0835069 -3.89585e-19 0.0473305)
(-0.0790154 -3.73901e-19 0.0448397)
(-0.07472 0 0.0424414)
(-0.0705991 -3.43917e-19 0.0401324)
(-0.0666348 -3.29633e-19 0.0379069)
(-0.0628332 6.31733e-19 0.0357691)
(-0.0591967 -6.05193e-19 0.0337219)
(-0.0557499 0 0.0317806)
(-0.0525312 5.54775e-19 0.0299676)
(-0.049586 -5.30912e-19 0.0283098)
(-0.0469773 0 0.0268433)
(-0.0447542 -2.00755e-23 0.0255965)
(-0.0429612 4.64484e-19 0.0245789)
(-0.0415897 0 0.0237959)
(-0.040545 -8.48621e-19 0.0231952)
(-0.0396138 0 0.0226586)
(-0.0383793 0 0.0219499)
(-0.0361879 2.63408e-23 0.0206555)
(-0.0320877 2.52223e-23 0.0182512)
(-0.0249241 6.73894e-19 0.0141111)
(-0.0136894 -6.42597e-19 0.00772414)
(0.0020143 1.22409e-18 -0.00103239)
(0.0208529 0 -0.0116474)
(0.039753 1.10541e-18 -0.02236)
(0.0543142 1.04834e-18 -0.0307095)
(0.0608804 -1.9873e-18 -0.03458)
(0.0588777 9.42146e-19 -0.0335465)
(0.0516255 0 -0.0294459)
(0.0436452 0 -0.0249866)
(0.0375401 0 -0.0216037)
(0.0363724 0 -0.0209904)
(0.0407408 0 -0.0234177)
(0.0493171 -1.38065e-18 -0.0281657)
(0.0539272 1.30579e-18 -0.0305549)
(0.0510982 0 -0.0285495)
(0.0277749 0 -0.0142322)
(-0.026197 1.08058e-18 0.0174901)
(-0.115969 2.38857e-22 0.0690295)
(-0.213491 1.90597e-18 0.122572)
(-0.257968 0 0.147009)
(-0.225602 0 0.125962)
(-0.0349653 0 0.0168475)
(0.0998602 5.2651e-22 -0.0561725)
(-0.0102416 0 0.0143621)
(1.86383 0 -1.04868)
(1.17057 6.50229e-19 -0.651955)
(-0.179095 -1.50642e-21 0.08957)
(0.0962611 0 -0.0573819)
(0.00591045 0 -0.00353982)
(0.0496004 -1.57479e-18 -0.0323986)
(0.234954 -1.40581e-18 -0.13318)
(0.276644 -1.31736e-18 -0.157276)
(0.343718 -1.14971e-18 -0.191731)
(0.171706 3.12336e-21 -0.0850493)
(-0.33708 2.74214e-21 0.210036)
(-0.967934 4.41997e-19 0.564737)
(-1.51122 0 0.859595)
(-1.77252 0 1.00313)
(-1.70593 0 0.959621)
(-1.37965 5.4612e-18 0.77118)
(-0.953563 -3.1005e-18 0.529633)
(-0.525516 3.27103e-18 0.289004)
(-0.2537 3.23862e-18 0.138479)
(-0.0467885 0 0.0231351)
(0.0324433 0 -0.0205046)
(0.0695847 0 -0.0417776)
(0.133692 5.21927e-18 -0.07813)
(0.198664 0 -0.115244)
(0.247055 -4.56575e-18 -0.141038)
(0.234363 0 -0.131341)
(0.035841 0 -0.0166543)
(-0.105689 3.53327e-18 0.060337)
(-0.152532 0 0.0854392)
(-0.0366072 0 0.0178126)
(0.0390858 0 -0.0239941)
(0.103192 -5.64113e-18 -0.0606091)
(0.116628 0 -0.0674136)
(0.152871 4.89745e-18 -0.0884813)
(0.156904 0 -0.0901723)
(0.193578 -9.55112e-23 -0.111229)
(31.2213 -1.61107e-20 -1.17388)
(21.8599 2.07617e-20 -3.51823)
(13.9289 1.36597e-20 -4.39991)
(8.86536 0 -3.82614)
(5.93585 -1.26062e-20 -2.89724)
(4.16336 2.32681e-20 -2.13311)
(3.01052 3.22958e-20 -1.57438)
(2.20531 -3.76569e-20 -1.16472)
(1.61326 0 -0.856248)
(1.16346 0 -0.618354)
(0.81398 0 -0.432626)
(0.538858 0 -0.285137)
(0.319861 0 -0.166849)
(0.143864 0 -0.0712427)
(0.00247022 -7.4604e-22 0.00640164)
(-0.110502 0 0.0689569)
(-0.201329 1.06269e-19 0.118834)
(-0.274019 0 0.158987)
(-0.331076 -2.07016e-19 0.190605)
(-0.37511 2.03174e-19 0.215209)
(-0.408614 0 0.233908)
(-0.432824 1.94825e-19 0.247525)
(-0.449486 -1.90585e-19 0.256875)
(-0.459745 1.85642e-19 0.262308)
(-0.464738 -1.80361e-19 0.264734)
(-0.465324 0 0.264638)
(-0.461982 1.69482e-19 0.262692)
(-0.455461 0 0.259099)
(-0.446508 0 0.253909)
(-0.435658 0 0.247611)
(-0.423189 2.96191e-19 0.240534)
(-0.4095 0 0.23278)
(-0.39494 0 0.224537)
(-0.37979 0 0.215977)
(-0.364314 0 0.20724)
(-0.348644 0 0.198384)
(-0.332925 0 0.189504)
(-0.317387 4.52472e-19 0.180729)
(-0.302121 0 0.172101)
(-0.287212 8.33501e-19 0.163675)
(-0.272743 7.9944e-19 0.155489)
(-0.258718 3.83179e-19 0.147548)
(-0.245196 0 0.139881)
(-0.232143 0 0.132468)
(-0.219519 6.73803e-19 0.125294)
(-0.207354 -6.4504e-19 0.11838)
(-0.19567 6.17156e-19 0.111742)
(-0.184554 0 0.105434)
(-0.174137 -5.64511e-19 0.0995343)
(-0.164573 0 0.0941352)
(-0.15607 0 0.0893563)
(-0.148795 -4.92631e-19 0.0852899)
(-0.142878 0 0.0819931)
(-0.138301 0 0.0794527)
(-0.134765 8.57406e-19 0.0774763)
(-0.131589 0 0.075637)
(-0.12744 0 0.0731282)
(-0.120177 4.53283e-23 0.0686559)
(-0.106776 7.09743e-19 0.0604739)
(-0.0835853 -4.02814e-23 0.0465394)
(-0.0474057 0 0.0252335)
(0.00291619 -1.22509e-18 -0.00400588)
(0.0635791 -1.16351e-18 -0.0390254)
(0.125107 0 -0.0741213)
(0.17367 -2.08949e-18 -0.101332)
(0.197267 -1.26068e-22 -0.113995)
(0.19332 0 -0.110772)
(0.171612 8.87197e-19 -0.0978021)
(0.146689 0 -0.0835747)
(0.127119 0 -0.0728143)
(0.122919 0 -0.0710532)
(0.13592 0 -0.0790219)
(0.161425 2.71907e-18 -0.0937265)
(0.17239 -1.28409e-18 -0.099483)
(0.156095 0 -0.0884917)
(0.0703516 0 -0.0356664)
(-0.113923 1.05853e-18 0.0741771)
(-0.406438 4.09962e-22 0.24516)
(-0.707252 -4.49343e-23 0.414491)
(-0.837195 0 0.483042)
(-0.702896 0 0.394519)
(-0.0997724 0 0.0394622)
(0.310555 8.47576e-22 -0.178934)
(-0.210235 -1.46952e-18 0.0529029)
(5.71286 1.18653e-18 -3.34866)
(3.80125 -6.28241e-19 -2.08633)
(-0.326505 -2.40312e-21 0.226825)
(0.326123 -8.47323e-19 -0.197343)
(0.030957 0 -0.0147374)
(0.210643 1.51365e-18 -0.132952)
(0.74803 0 -0.438227)
(0.879597 1.2631e-18 -0.511766)
(0.99813 0 -0.573594)
(0.32201 -1.71347e-18 -0.159711)
(-1.36497 -5.80764e-19 0.831368)
(-3.28954 0 1.94281)
(-4.81466 0 2.8058)
(-5.44875 -1.38978e-18 3.15615)
(-5.11156 1.99873e-18 2.94319)
(-4.06186 -5.17184e-18 2.32281)
(-2.77487 2.94468e-18 1.57529)
(-1.49717 -3.10385e-18 0.841331)
(-0.705036 0 0.392156)
(-0.0947311 2.9682e-18 0.0451099)
(0.144667 0 -0.0866414)
(0.264328 0 -0.156004)
(0.467486 -4.93204e-18 -0.273158)
(0.671909 0 -0.391653)
(0.781447 -8.2698e-22 -0.452181)
(0.692176 3.96501e-18 -0.394527)
(0.0542638 0 -0.0211739)
(-0.330259 0 0.195727)
(-0.424557 0 0.244798)
(-0.0480711 3.01471e-18 0.0228094)
(0.159017 -5.63757e-18 -0.0952886)
(0.369707 5.30316e-18 -0.215473)
(0.39403 0 -0.228532)
(0.520575 -4.59993e-18 -0.301353)
(0.518664 0 -0.30056)
(0.641136 7.9355e-18 -0.370744)
(34.8173 3.41506e-20 -1.09659)
(30.3025 -9.18996e-21 -3.1523)
(23.7569 -4.09643e-21 -4.84816)
(17.5323 0 -5.21836)
(12.6974 -1.50063e-20 -4.67999)
(9.28105 6.17876e-22 -3.84571)
(6.90051 0 -3.04735)
(5.19419 3.57414e-20 -2.37874)
(3.92799 0 -1.83849)
(2.96147 4.32748e-20 -1.40366)
(2.20803 0 -1.05191)
(1.61117 0 -0.765863)
(1.13274 0 -0.532128)
(0.745772 0 -0.340414)
(0.432098 -1.00849e-19 -0.181732)
(0.177193 0 -0.0515427)
(-0.0304186 0 0.0544439)
(-0.198944 0 0.141316)
(-0.334943 9.80496e-20 0.211152)
(-0.443178 -5.73475e-22 0.267537)
(-0.528818 0 0.312144)
(-0.594797 -4.18667e-22 0.346658)
(-0.644659 0 0.372683)
(-0.680667 -1.75409e-19 0.390982)
(-0.704824 0 0.403246)
(-0.7192 0 0.410189)
(-0.72553 -1.60759e-19 0.412263)
(-0.725024 0 0.410728)
(-0.718837 0 0.405968)
(-0.707865 -2.90501e-19 0.399038)
(-0.693134 0 0.390175)
(-0.675331 0 0.37985)
(-0.655186 0 0.368339)
(-0.633306 0 0.355979)
(-0.61025 2.4134e-19 0.343029)
(-0.586342 0 0.329622)
(-0.561886 0 0.31596)
(-0.537336 -4.28348e-19 0.302285)
(-0.512917 0 0.288684)
(-0.48882 -7.8915e-19 0.275274)
(-0.465231 -8.20414e-23 0.262135)
(-0.442192 -3.62775e-19 0.249295)
(-0.419832 0 0.236826)
(-0.398132 0 0.224694)
(-0.377049 -3.1878e-19 0.212895)
(-0.35665 0 0.201472)
(-0.336987 -5.83804e-19 0.190468)
(-0.318217 0 0.179988)
(-0.300574 4.63236e-23 0.170172)
(-0.284329 0 0.161183)
(-0.269837 0 0.153228)
(-0.257391 0 0.146461)
(-0.247203 -4.44477e-19 0.140991)
(-0.239262 0 0.136758)
(-0.233071 0 0.133403)
(-0.227488 0 0.130148)
(-0.220278 0 0.12557)
(-0.207817 1.4052e-18 0.117506)
(-0.185062 0 0.103)
(-0.145928 -3.32744e-23 0.0786661)
(-0.0850819 0 0.0419266)
(-0.000585531 5.77664e-19 -0.0081384)
(0.101767 1.09702e-18 -0.0674068)
(0.206556 0 -0.126387)
(0.290903 1.96938e-18 -0.171947)
(0.334221 9.31736e-19 -0.193316)
(0.331072 0 -0.188331)
(0.296768 -8.3552e-19 -0.167212)
(0.255646 0 -0.143977)
(0.222474 0 -0.126522)
(0.214434 0 -0.124067)
(0.234657 0 -0.137375)
(0.274855 7.10744e-23 -0.160216)
(0.288432 1.20758e-18 -0.165688)
(0.252202 0 -0.138144)
(0.0949468 0 -0.0365722)
(-0.227994 4.58983e-22 0.16094)
(-0.724354 -1.85675e-18 0.452581)
(-1.21612 -8.73509e-19 0.722962)
(-1.41862 0 0.815725)
(-1.16051 0 0.627117)
(-0.154406 0 0.031343)
(0.527081 -2.94183e-18 -0.295188)
(-0.494958 -8.18452e-22 0.0535937)
(9.06786 -1.11307e-18 -5.38849)
(6.46776 0 -3.39868)
(-0.203876 -7.46956e-19 0.246127)
(0.56785 7.94366e-19 -0.348019)
(0.0737834 0 -0.034157)
(0.410702 0 -0.275351)
(1.25121 1.26603e-18 -0.74223)
(1.46415 0 -0.852372)
(1.54155 1.03812e-18 -0.859076)
(0.257447 -3.76723e-21 -0.0355403)
(-2.62787 5.50979e-19 1.67628)
(-5.72212 -3.97307e-19 3.43955)
(-8.00605 0 4.68109)
(-8.81083 1.30062e-18 5.07013)
(-8.10666 -1.87024e-18 4.59453)
(-6.36582 4.81804e-18 3.5507)
(-4.32194 0 2.37189)
(-2.29879 -2.8945e-18 1.2317)
(-1.06165 0 0.552981)
(-0.0961189 -2.77549e-18 0.0202104)
(0.290199 2.60051e-18 -0.181039)
(0.494774 0 -0.298997)
(0.831311 4.61022e-18 -0.492613)
(1.16775 0 -0.685003)
(1.2977 8.05648e-18 -0.746545)
(1.09525 -3.70517e-18 -0.603653)
(0.0354107 0 0.0181071)
(-0.529362 0 0.318924)
(-0.634297 0 0.354143)
(-0.000312037 -6.72241e-22 -0.0225992)
(0.30495 5.26592e-18 -0.189724)
(0.667531 -4.95253e-18 -0.393603)
(0.68563 0 -0.399319)
(0.911527 -4.2957e-18 -0.529213)
(0.889794 0 -0.516148)
(1.10225 1.06175e-22 -0.637435)
(35.4168 -1.7878e-20 -1.32603)
(34.1784 -5.04328e-21 -2.53324)
(30.4197 7.5741e-21 -4.29377)
(25.3213 -1.52747e-20 -5.43294)
(20.1642 -2.14163e-20 -5.63938)
(15.7172 -4.43729e-20 -5.1912)
(12.1858 0 -4.46537)
(9.46263 0 -3.70016)
(7.36185 0 -2.999)
(5.72221 -4.09908e-20 -2.39143)
(4.42513 0 -1.87656)
(3.38641 0 -1.44384)
(2.54629 0 -1.08116)
(1.86137 0 -0.777488)
(1.30054 0 -0.522742)
(0.840172 -9.46123e-20 -0.31006)
(0.461911 9.42344e-20 -0.132828)
(0.150445 0 0.0141997)
(-0.104279 0 0.135572)
(-0.311274 -1.82093e-19 0.234812)
(-0.479032 1.78113e-19 0.315285)
(-0.612577 -1.74691e-19 0.379732)
(-0.717617 1.70161e-19 0.430496)
(-0.797974 1.661e-19 0.469461)
(-0.857633 -1.61264e-19 0.498449)
(-0.900151 1.56544e-19 0.518698)
(-0.928022 0 0.531104)
(-0.9433 -1.46994e-19 0.537182)
(-0.948835 0 0.536571)
(-0.945628 2.74947e-19 0.532021)
(-0.935048 0 0.524583)
(-0.918704 0 0.514191)
(-0.897676 0 0.501661)
(-0.873038 -2.37171e-19 0.487439)
(-0.845746 -2.28298e-19 0.471943)
(-0.816409 0 0.455415)
(-0.785565 0 0.438197)
(-0.753948 4.05054e-19 0.420667)
(-0.721983 0 0.402979)
(-0.690017 1.03032e-22 0.385337)
(-0.658378 -3.57647e-19 0.367873)
(-0.627194 0 0.350661)
(-0.596689 0 0.333814)
(-0.566894 0 0.317311)
(-0.537786 0 0.30117)
(-0.509481 -5.7622e-19 0.285473)
(-0.482085 0 0.270298)
(-0.455834 5.27114e-19 0.255813)
(-0.431072 5.0393e-19 0.242227)
(-0.408196 0 0.229783)
(-0.387715 0 0.218774)
(-0.370054 0 0.209414)
(-0.355521 4.19344e-19 0.20184)
(-0.344106 -4.00183e-19 0.195945)
(-0.335114 -7.63632e-19 0.191182)
(-0.326947 0 0.186404)
(-0.316483 -6.94603e-19 0.179542)
(-0.298699 -1.32444e-18 0.167476)
(-0.266608 0 0.146058)
(-0.211804 -1.20233e-18 0.110632)
(-0.126918 0 0.0577829)
(-0.00903681 -5.44054e-19 -0.0133352)
(0.13427 -1.03306e-18 -0.0968232)
(0.282339 0 -0.179433)
(0.403882 -9.26896e-19 -0.24311)
(0.469754 -8.77029e-19 -0.273169)
(0.470633 0 -0.266834)
(0.426199 0 -0.238012)
(0.370009 0 -0.206232)
(0.323233 7.06493e-19 -0.182507)
(0.310369 6.69943e-19 -0.179629)
(0.335941 0 -0.197929)
(0.387767 -1.20181e-18 -0.227143)
(0.399497 -1.13481e-18 -0.228422)
(0.335171 0 -0.178001)
(0.096339 0 -0.0183816)
(-0.373078 -9.34416e-19 0.275379)
(-1.07055 -3.33733e-22 0.68801)
(-1.73534 0 1.04573)
(-1.99241 0 1.14325)
(-1.58737 0 0.830392)
(-0.194497 0 -0.00474868)
(0.752186 -6.59389e-22 -0.411458)
(-0.68025 1.29363e-18 -0.0901728)
(11.5828 0 -7.0603)
(9.07943 0 -4.60862)
(0.220079 0 0.172167)
(0.82358 7.4421e-19 -0.50245)
(0.14087 0 -0.0654451)
(0.649458 1.3253e-18 -0.448385)
(1.73835 -1.18558e-18 -1.04796)
(2.01476 1.11017e-18 -1.17653)
(1.94077 -9.71832e-19 -1.05625)
(-0.0602806 1.51724e-18 0.256516)
(-4.12957 -5.15638e-19 2.69359)
(-8.20674 3.71771e-19 5.00453)
(-10.9713 0 6.46106)
(-11.7267 0 6.76163)
(-10.5782 -1.72616e-18 5.96969)
(-8.21388 -2.24856e-18 4.53501)
(-5.55128 -2.55459e-18 2.9926)
(-2.91053 4.46472e-21 1.5125)
(-1.3133 0 0.651219)
(-0.0469974 0 -0.0381034)
(0.46978 -2.4307e-18 -0.296167)
(0.762584 0 -0.465284)
(1.22331 -4.30765e-18 -0.731417)
(1.67923 0 -0.98952)
(1.78621 8.22424e-22 -1.02661)
(1.43566 0 -0.775437)
(-0.0123141 -3.12445e-18 0.0782324)
(-0.686129 2.90448e-18 0.421833)
(-0.773191 2.73245e-18 0.426092)
(0.109957 -7.67074e-22 -0.103423)
(0.475938 0 -0.300101)
(0.99551 4.62504e-18 -0.589555)
(0.988313 4.30496e-18 -0.57776)
(1.32254 4.01118e-18 -0.769277)
(1.26592 0 -0.736327)
(1.57157 1.2216e-22 -0.910942)
(35.0541 0 -1.82655)
(35.2075 -3.68644e-21 -2.35584)
(33.7774 0 -3.65484)
(30.7215 1.44317e-20 -4.96929)
(26.652 3.3648e-20 -5.74982)
(22.3197 2.16268e-20 -5.88327)
(18.2782 0 -5.52968)
(14.7854 0 -4.91274)
(11.8811 -3.52182e-20 -4.2067)
(9.50352 -3.81215e-20 -3.51215)
(7.56355 4.03886e-20 -2.87488)
(5.97677 8.41527e-20 -2.31)
(4.67322 8.65237e-20 -1.81826)
(3.59743 0 -1.39457)
(2.70677 0 -1.0313)
(1.96797 1.785e-19 -0.721813)
(1.35448 -3.72939e-22 -0.459482)
(0.844548 0 -0.238388)
(0.42272 -8.69271e-20 -0.0516645)
(0.0741907 -1.71131e-19 0.102986)
(-0.212046 -1.68392e-19 0.231273)
(-0.444935 0 0.336161)
(-0.632888 -1.60858e-19 0.421118)
(-0.782128 1.56419e-19 0.488394)
(-0.898374 1.52428e-19 0.540792)
(-0.986699 -1.87999e-22 0.580385)
(-1.05095 0 0.609354)
(-1.09548 1.72852e-22 0.628873)
(-1.1232 0 0.639513)
(-1.13699 2.59331e-19 0.641834)
(-1.13939 0 0.638139)
(-1.13145 0 0.631065)
(-1.11554 0 0.620133)
(-1.09321 2.24009e-19 0.606395)
(-1.06594 0 0.590416)
(-1.03476 0 0.572555)
(-1.00054 0 0.553334)
(-0.964355 0 0.533294)
(-0.926923 -3.66778e-19 0.51268)
(-0.888801 7.03801e-19 0.491801)
(-0.850519 0 0.470862)
(-0.812336 3.23341e-19 0.449998)
(-0.774613 0 0.429388)
(-0.737469 0 0.40903)
(-0.700933 0 0.388982)
(-0.665197 7.92347e-23 0.36938)
(-0.630435 0 0.35035)
(-0.59698 -4.97015e-19 0.332133)
(-0.565298 0 0.315019)
(-0.535918 0 0.299335)
(-0.509512 -4.33466e-19 0.285462)
(-0.48664 0 0.273672)
(-0.467707 0 0.264124)
(-0.45271 2.32739e-23 0.256643)
(-0.440767 7.1925e-19 0.250469)
(-0.429835 0 0.244048)
(-0.415942 3.93803e-23 0.234632)
(-0.392718 1.24676e-18 0.21815)
(-0.35135 0 0.189274)
(-0.281261 5.65733e-19 0.142167)
(-0.173175 0 0.0727138)
(-0.0231423 5.1182e-19 -0.0196245)
(0.159934 9.71682e-19 -0.127065)
(0.350948 0 -0.232719)
(0.511005 8.71704e-19 -0.31394)
(0.602474 -1.02159e-22 -0.352498)
(0.611024 0 -0.345249)
(0.559237 0 -0.309472)
(0.489301 0 -0.269805)
(0.428907 -1.32733e-18 -0.24032)
(0.410018 3.24637e-24 -0.237206)
(0.43867 0 -0.259919)
(0.498694 1.12848e-18 -0.293141)
(0.503871 2.13061e-18 -0.285319)
(0.403327 0 -0.204097)
(0.0732574 0 0.0236847)
(-0.549012 0 0.421461)
(-1.44168 -3.14258e-22 0.951823)
(-2.25899 0 1.37916)
(-2.55185 0 1.45592)
(-1.98174 0 0.993925)
(-0.221964 0 -0.0718041)
(0.980315 1.29366e-18 -0.526161)
(-0.513168 1.21362e-18 -0.50437)
(12.9367 0 -8.14321)
(11.5415 0 -5.66525)
(0.925036 0 0.00683197)
(1.10033 7.04181e-24 -0.656385)
(0.237886 0 -0.112329)
(0.916843 -1.24068e-18 -0.652118)
(2.20793 0 -1.35071)
(2.52136 -1.03898e-18 -1.47095)
(2.18961 0 -1.13252)
(-0.618358 -7.11725e-19 0.750721)
(-5.81963 0 3.88486)
(-10.6583 0 6.58652)
(-13.6284 0 8.06185)
(-14.1636 0 8.12888)
(-12.54 1.61406e-18 6.98533)
(-9.65055 0 5.21711)
(-6.50811 2.38817e-18 3.40137)
(-3.36724 2.52565e-18 1.66515)
(-1.47827 0 0.675353)
(0.0445562 0 -0.134441)
(0.67747 0 -0.434126)
(1.06287 0 -0.656641)
(1.63782 3.57288e-22 -0.98884)
(2.19889 0 -1.30053)
(2.2477 -7.03495e-18 -1.28222)
(1.72605 0 -0.899863)
(-0.0679208 5.83764e-18 0.157862)
(-0.789273 -2.71271e-18 0.495116)
(-0.850664 -2.55189e-18 0.450475)
(0.272265 -2.45504e-18 -0.225399)
(0.666114 0 -0.427383)
(1.34819 0 -0.803487)
(1.29864 -8.03913e-18 -0.7619)
(1.74893 3.74498e-18 -1.01944)
(1.64435 3.48846e-18 -0.958126)
(2.04468 -3.2296e-18 -1.18708)
(34.5985 0 -2.2906)
(35.0137 3.41512e-20 -2.5041)
(34.8534 0 -3.27577)
(33.5601 0 -4.35901)
(31.0914 0 -5.33517)
(27.7965 0 -5.91629)
(24.14 0 -6.03063)
(20.5096 3.05097e-20 -5.76039)
(17.1516 3.32308e-20 -5.24408)
(14.1812 7.1829e-20 -4.6087)
(11.6215 -7.60197e-20 -3.9437)
(9.44581 -7.94269e-20 -3.30157)
(7.60851 -8.16698e-20 -2.70859)
(6.06085 0 -2.17535)
(4.75847 0 -1.70338)
(3.66321 -1.67724e-19 -1.29072)
(2.74272 -1.67183e-19 -0.933158)
(1.96952 0 -0.625857)
(1.32195 8.20555e-20 -0.36269)
(0.781036 1.61536e-19 -0.140085)
(0.331197 0 0.0478507)
(-0.0406793 1.54808e-19 0.204276)
(-0.345881 0 0.333729)
(-0.593791 -2.63572e-22 0.438913)
(-0.792363 -1.4338e-19 0.523657)
(-0.949178 -1.96383e-22 0.59033)
(-1.07009 0 0.641269)
(-1.1604 1.30906e-19 0.678999)
(-1.22457 -2.52967e-19 0.7061)
(-1.2676 -4.89075e-19 0.722265)
(-1.2923 -2.35923e-19 0.728688)
(-1.30244 0 0.726575)
(-1.29926 -2.19194e-19 0.72058)
(-1.2857 0 0.710041)
(-1.26395 0 0.695928)
(-1.23556 0 0.678799)
(-1.20184 0 0.659376)
(-1.16435 0 0.638398)
(-1.12416 1.16038e-22 0.616217)
(-1.08214 -3.31643e-19 0.593275)
(-1.03908 0 0.569868)
(-0.995436 -6.09337e-19 0.546216)
(-0.951753 0 0.522579)
(-0.908293 0 0.498991)
(-0.865172 0 0.475569)
(-0.822687 5.11833e-19 0.452517)
(-0.781109 0 0.430028)
(-0.740881 0 0.408429)
(-0.702607 0 0.388096)
(-0.666959 0 0.36945)
(-0.634772 8.16021e-19 0.352962)
(-0.606752 0 0.338956)
(-0.583405 0 0.327604)
(-0.56474 3.54693e-19 0.318639)
(-0.549702 0 0.311061)
(-0.535823 0 0.302874)
(-0.518332 1.2301e-18 0.290619)
(-0.489599 -5.86189e-19 0.269264)
(-0.439123 0 0.232353)
(-0.354334 0 0.172996)
(-0.224192 0 0.0865666)
(-0.0436875 -4.80997e-19 -0.0269903)
(0.177435 0 -0.157902)
(0.410525 0 -0.285824)
(0.610068 -1.63775e-18 -0.383923)
(0.730185 1.54895e-18 -0.430826)
(0.750496 0 -0.423105)
(0.694735 0 -0.38102)
(0.612741 0 -0.334111)
(0.538817 6.22906e-19 -0.299371)
(0.512526 -5.90468e-19 -0.296139)
(0.541608 -1.11879e-18 -0.322469)
(0.605853 -1.05864e-18 -0.356992)
(0.599072 -9.99298e-19 -0.335098)
(0.454026 9.41009e-19 -0.214364)
(0.0236144 0 0.0919104)
(-0.75565 0 0.600364)
(-1.83333 7.66967e-19 1.24227)
(-2.7795 0 1.71861)
(-3.08619 0 1.74914)
(-2.33787 0 1.11454)
(-0.241862 0 -0.168708)
(1.18427 0 -0.639622)
(0.19924 -2.27372e-18 -1.26787)
(12.8747 0 -8.5007)
(13.7322 -4.94125e-19 -6.54366)
(1.87393 0 -0.219704)
(1.40934 1.35842e-23 -0.808281)
(0.37073 1.09177e-18 -0.177816)
(1.20356 0 -0.879631)
(2.65591 0 -1.64856)
(2.97022 0 -1.72469)
(2.26962 0 -1.08212)
(-1.41406 6.73004e-19 1.4362)
(-7.64704 0 5.2089)
(-12.9786 0 8.12168)
(-15.8855 0 9.43706)
(-16.0603 0 9.19887)
(-13.9833 0 7.69798)
(-10.6951 0 5.66409)
(-7.214 0 3.65089)
(-3.6889 0 1.72477)
(-1.56411 -2.3336e-18 0.642977)
(0.174274 0 -0.261596)
(0.909485 0 -0.590249)
(1.39122 0 -0.86879)
(2.06945 3.75934e-18 -1.2608)
(2.71926 0 -1.61295)
(2.67769 3.28573e-18 -1.51598)
(1.97099 0 -0.988952)
(-0.118158 9.24688e-22 0.242392)
(-0.829297 0 0.533426)
(-0.867585 2.38109e-18 0.438352)
(0.482469 0 -0.37847)
(0.872059 0 -0.567071)
(1.72134 0 -1.03111)
(1.61307 3.7527e-18 -0.949715)
(2.18556 -6.99235e-18 -1.27653)
(2.02188 -6.51329e-18 -1.18045)
(2.51489 -3.01501e-18 -1.46344)
(34.2663 0 -2.58393)
(34.5606 -3.65769e-20 -2.72373)
(34.809 0 -3.15567)
(34.5293 0 -3.90639)
(33.407 -2.79775e-20 -4.78297)
(31.4244 -2.73517e-20 -5.5353)
(28.7643 2.8128e-20 -5.9938)
(25.6912 -8.83174e-20 -6.10584)
(22.4698 0 -5.90883)
(19.3151 4.20318e-23 -5.48573)
(16.3704 3.57153e-20 -4.92674)
(13.7108 0 -4.30679)
(11.3605 0 -3.67867)
(9.31223 0 -3.07554)
(7.54324 0 -2.51549)
(6.02472 3.43098e-22 -2.00739)
(4.72698 3.05264e-22 -1.55399)
(3.62159 7.77513e-20 -1.15469)
(2.68363 7.68586e-20 -0.805942)
(1.89072 0 -0.504942)
(1.22324 -1.48665e-19 -0.246775)
(0.664527 -1.4591e-19 -0.0276522)
(0.199394 0 0.156781)
(-0.184444 -2.44614e-22 0.310193)
(-0.498094 2.24007e-22 0.43627)
(-0.751799 -1.31224e-19 0.538436)
(-0.953635 0 0.619662)
(-1.11126 0 0.682686)
(-1.23107 2.38348e-19 0.729894)
(-1.3184 2.16371e-22 0.764361)
(-1.37903 4.44312e-19 0.787452)
(-1.41724 0 0.798496)
(-1.43704 4.12809e-19 0.799006)
(-1.44069 0 0.79469)
(-1.43142 0 0.785305)
(-1.41175 -1.83714e-19 0.77131)
(-1.38352 0 0.753803)
(-1.34889 -3.38962e-19 0.733741)
(-1.30944 1.13663e-22 0.711608)
(-1.26643 3.12017e-19 0.688001)
(-1.22101 0 0.663332)
(-1.1739 7.19022e-23 0.637929)
(-1.12592 0 0.612159)
(-1.07751 0 0.586107)
(-1.02893 0 0.559968)
(-0.980626 0 0.534036)
(-0.932992 0 0.508584)
(-0.886604 4.40078e-19 0.48404)
(-0.842218 0 0.460879)
(-0.800661 0 0.43962)
(-0.76294 -3.83631e-19 0.420824)
(-0.729913 0 0.404863)
(-0.702188 -3.49427e-19 0.391908)
(-0.679799 -3.33345e-19 0.381579)
(-0.661531 6.3582e-19 0.372611)
(-0.644526 0 0.362535)
(-0.623278 -5.7787e-19 0.347155)
(-0.589011 -5.50622e-19 0.320485)
(-0.529713 0 0.274997)
(-0.431037 0 0.202889)
(-0.280348 0 0.0992359)
(-0.0715392 4.51628e-19 -0.0353341)
(0.185305 0 -0.189017)
(0.458996 0 -0.338216)
(0.69859 7.68598e-19 -0.452346)
(0.85042 -1.45374e-18 -0.507291)
(0.886951 0 -0.499593)
(0.831168 0 -0.451886)
(0.739248 0 -0.398423)
(0.652073 0 -0.358939)
(0.616903 -5.53712e-19 -0.355635)
(0.643435 1.04898e-18 -0.384582)
(0.707509 0 -0.417281)
(0.683221 0 -0.375393)
(0.485235 -8.81913e-19 -0.206002)
(-0.0537086 0 0.188869)
(-0.991364 -7.71716e-19 0.812729)
(-2.23951 7.19019e-19 1.55638)
(-3.28839 0 2.05855)
(-3.58699 0 2.01462)
(-2.65102 0 1.18717)
(-0.264709 0 -0.289726)
(1.3153 0 -0.744671)
(1.43268 1.06444e-18 -2.32281)
(11.4148 0 -8.11952)
(15.5553 9.24474e-19 -7.24219)
(3.00883 0 -0.476872)
(1.76406 5.17587e-23 -0.959704)
(0.545684 -6.84244e-23 -0.264476)
(1.49785 0 -1.12448)
(3.07834 9.73361e-19 -1.93749)
(3.34644 0 -1.92685)
(2.17554 0 -0.886081)
(-2.423 -1.26189e-18 2.31054)
(-9.54032 0 6.62475)
(-15.068 0 9.54202)
(-17.6911 0 10.5411)
(-17.4588 0 9.93286)
(-14.9859 0 8.11417)
(-11.4293 0 5.8956)
(-7.72841 0 3.75733)
(-3.91827 0 1.70529)
(-1.58983 2.18017e-18 0.558396)
(0.333326 0 -0.416787)
(1.15877 0 -0.762362)
(1.73938 0 -1.09857)
(2.51095 -3.51048e-18 -1.54358)
(3.23366 -3.31562e-18 -1.92203)
(3.07892 -3.07e-18 -1.72336)
(2.18444 2.82627e-18 -1.04392)
(-0.147574 8.66846e-22 0.325128)
(-0.802232 -2.36466e-18 0.533263)
(-0.835347 -4.44541e-18 0.388229)
(0.730272 0 -0.560999)
(1.08881 4.00111e-18 -0.717676)
(2.10872 3.76305e-18 -1.27004)
(1.92835 0 -1.13931)
(2.62648 3.26362e-18 -1.53733)
(2.39667 3.03999e-18 -1.40159)
(2.97569 2.81426e-18 -1.73565)
(34.0187 0 -2.74446)
(34.174 1.81109e-20 -2.89461)
(34.4245 0 -3.1756)
(34.5245 0 -3.66865)
(34.1956 2.63442e-20 -4.33332)
(33.2666 2.57496e-20 -5.03698)
(31.6981 -2.64756e-20 -5.63154)
(29.5612 8.55177e-20 -6.00958)
(26.9985 0 -6.12589)
(24.1831 3.23331e-20 -5.99163)
(21.2839 -6.69518e-20 -5.65382)
(18.4421 0 -5.17333)
(15.7588 7.12321e-20 -4.60914)
(13.295 0 -4.01007)
(11.0786 7.33041e-20 -3.41192)
(9.11442 7.39124e-20 -2.83884)
(7.39289 7.37299e-20 -2.30545)
(5.89648 -7.31889e-20 -1.81969)
(4.60476 -1.44478e-19 -1.38395)
(3.49648 0 -0.998847)
(2.55093 1.39942e-19 -0.661955)
(1.74911 0 -0.37055)
(1.07309 0 -0.121038)
(0.507633 -1.30494e-19 0.0908941)
(0.0381479 2.53739e-19 0.268124)
(-0.348049 0 0.415028)
(-0.662015 0 0.534906)
(-0.913833 0 0.631077)
(-1.11221 -2.23841e-19 0.706583)
(-1.26501 2.16491e-19 0.763984)
(-1.37883 -1.70596e-22 0.80612)
(-1.4597 2.01321e-19 0.836597)
(-1.51405 -3.88122e-19 0.852421)
(-1.54532 1.86766e-19 0.857014)
(-1.55784 -1.79671e-19 0.854928)
(-1.55443 8.63003e-23 0.847004)
(-1.53809 0 0.833835)
(-1.51167 3.18797e-19 0.816855)
(-1.47745 3.05919e-19 0.796656)
(-1.43718 -2.93408e-19 0.774025)
(-1.39252 0 0.749517)
(-1.34455 2.69511e-19 0.723593)
(-1.2944 2.58068e-19 0.696754)
(-1.24283 2.4707e-19 0.669155)
(-1.19028 2.36443e-19 0.641093)
(-1.13738 0 0.612972)
(-1.08471 0 0.585163)
(-1.03299 -5.63389e-23 0.558211)
(-0.983156 0 0.532698)
(-0.936199 0 0.509249)
(-0.893307 -3.60308e-19 0.488517)
(-0.855497 3.43909e-19 0.470913)
(-0.823489 3.28175e-19 0.456595)
(-0.797352 2.34123e-23 0.445051)
(-0.775736 -4.30537e-23 0.43472)
(-0.75544 0 0.422633)
(-0.730308 0 0.403847)
(-0.690558 1.03364e-18 0.371438)
(-0.622877 0 0.316891)
(-0.511393 0 0.23165)
(-0.342067 -4.45838e-19 0.110698)
(-0.107662 0 -0.0444581)
(0.181929 0 -0.219972)
(0.494068 7.62017e-19 -0.38924)
(0.77375 -7.21012e-19 -0.51838)
(0.960197 1.36339e-18 -0.580975)
(1.01784 0 -0.573652)
(0.966559 -6.10141e-19 -0.521144)
(0.867396 0 -0.461854)
(0.767557 0 -0.418159)
(0.722037 1.03781e-18 -0.414776)
(0.742792 0 -0.44515)
(0.801925 0 -0.472518)
(0.754261 0 -0.404249)
(0.495176 0 -0.176417)
(-0.159065 0 0.316679)
(-1.25313 7.22656e-19 1.05827)
(-2.6529 2.10047e-22 1.89015)
(-3.77684 -6.31218e-19 2.39302)
(-4.04577 6.04118e-19 2.24638)
(-2.91618 0 1.20797)
(-0.309307 0 -0.422027)
(1.31473 0 -0.825295)
(2.88622 0 -3.45281)
(8.94833 0 -7.20455)
(16.9776 -2.07769e-22 -7.79849)
(4.268 0 -0.734428)
(2.17881 -5.70821e-19 -1.11079)
(0.769768 -5.5806e-23 -0.37417)
(1.7882 0 -1.37925)
(3.4692 -9.10077e-19 -2.21259)
(3.6378 0 -2.05991)
(1.90315 7.54971e-19 -0.536875)
(-3.61196 -3.00572e-21 3.35703)
(-11.4206 0 8.0793)
(-16.8373 0 10.7848)
(-19.0341 0 11.3643)
(-18.4125 0 10.3819)
(-15.6295 1.2704e-18 8.30846)
(-11.9301 0 5.97682)
(-8.10338 0 3.76395)
(-4.09562 2.04433e-18 1.63601)
(-1.57325 0 0.434572)
(0.512558 -1.97253e-18 -0.594063)
(1.41761 1.84962e-18 -0.945805)
(2.09713 0 -1.3402)
(2.95385 6.55621e-18 -1.83225)
(3.73606 5.93698e-23 -2.22352)
(3.45249 5.73407e-18 -1.90712)
(2.37772 -2.63892e-18 -1.07435)
(-0.144929 -2.37851e-18 0.397047)
(-0.708136 2.20771e-18 0.494633)
(-0.760791 2.07464e-18 0.30915)
(1.00744 1.99543e-18 -0.765512)
(1.31249 -3.73511e-18 -0.876285)
(2.50422 -3.51275e-18 -1.51633)
(2.24183 -3.27009e-18 -1.32913)
(3.06529 -3.04624e-18 -1.79823)
(2.76744 0 -1.62089)
(3.41965 0 -2)
(33.7975 0 -2.83851)
(33.8741 1.96104e-20 -3.00126)
(34.0403 0 -3.22703)
(34.1984 0 -3.56942)
(34.1934 0 -4.04405)
(33.8733 0 -4.60887)
(33.1249 2.94097e-20 -5.17913)
(31.8942 -2.76938e-20 -5.66086)
(30.1909 2.98209e-20 -5.98102)
(28.0792 -6.03207e-20 -6.10183)
(25.6604 6.29381e-20 -6.02015)
(23.0543 0 -5.75882)
(20.3808 -6.69613e-20 -5.35582)
(17.7459 0 -4.85459)
(15.232 -6.89133e-20 -4.2966)
(12.8952 -6.88391e-20 -3.71725)
(10.7671 0 -3.14384)
(8.85977 0 -2.59591)
(7.17183 6.78167e-20 -2.08548)
(5.69352 0 -1.61999)
(4.41013 0 -1.20219)
(3.30492 -1.28299e-19 -0.832549)
(2.36011 0 -0.50958)
(1.55874 0 -0.230325)
(0.884324 -1.19186e-19 0.00793357)
(0.321478 0 0.209183)
(-0.143723 0 0.376899)
(-0.524044 0 0.51476)
(-0.83089 4.20632e-19 0.626205)
(-1.07452 0 0.714494)
(-1.26409 -1.62373e-22 0.782506)
(-1.40766 -1.34394e-22 0.832992)
(-1.51168 1.82324e-19 0.870515)
(-1.58419 -1.75525e-19 0.892144)
(-1.62928 3.37598e-19 0.901868)
(-1.65233 1.62309e-19 0.902189)
(-1.65602 0 0.896456)
(-1.64473 0 0.884988)
(-1.62152 2.87203e-19 0.868902)
(-1.58882 -2.75458e-19 0.849166)
(-1.54892 0 0.826485)
(-1.50342 0 0.801484)
(-1.45388 -5.93509e-23 0.774833)
(-1.40145 -2.32037e-19 0.746777)
(-1.34685 -2.22038e-19 0.717737)
(-1.29096 -4.24694e-19 0.688252)
(-1.23457 0 0.658812)
(-1.17862 -5.55173e-23 0.630093)
(-1.12421 0 0.602798)
(-1.07254 0 0.57766)
(-1.02498 3.38178e-19 0.555427)
(-0.982715 -3.22756e-19 0.536542)
(-0.946588 0 0.521139)
(-0.916722 2.93703e-19 0.508551)
(-0.89167 -4.29756e-23 0.496898)
(-0.867945 0 0.482695)
(-0.838851 0 0.460244)
(-0.793777 -9.69406e-19 0.421725)
(-0.71835 0 0.357736)
(-0.595451 0 0.259141)
(-0.409845 8.36051e-19 0.121032)
(-0.153132 0 -0.0540421)
(0.165561 0 -0.250186)
(0.513248 -1.42861e-18 -0.438117)
(0.832403 6.75755e-19 -0.581088)
(1.0561 -6.38877e-19 -0.650819)
(1.13969 0 -0.644731)
(1.09838 5.71652e-19 -0.587726)
(0.995364 0 -0.52336)
(0.883907 -5.1293e-19 -0.476024)
(0.826708 -4.86013e-19 -0.472529)
(0.838312 0 -0.502971)
(0.887448 0 -0.521132)
(0.810417 8.2222e-19 -0.419446)
(0.482514 7.74218e-19 -0.123085)
(-0.291915 0 0.47693)
(-1.53659 0 1.33564)
(-3.0653 -1.26068e-18 2.2387)
(-4.23652 5.90689e-19 2.71625)
(-4.4565 -1.1299e-18 2.43837)
(-3.12933 0 1.17492)
(-0.405976 0 -0.54284)
(1.13845 0 -0.867568)
(4.12535 0 -4.38181)
(6.17108 0 -6.14106)
(18.0375 3.8743e-22 -8.27947)
(5.59817 0 -0.969506)
(2.66464 0 -1.26019)
(1.0504 -3.52186e-23 -0.50773)
(2.06507 0 -1.63697)