/*--------------------------------*- C++ -*----------------------------------*\
| =========                 |                                                 |
| \\      /  F ield         | OpenFOAM: The Open Source CFD Toolbox           |
|  \\    /   O peration     | Version:  2412                                  |
|   \\  /    A nd           | Website:  www.openfoam.com                      |
|    \\/     M anipulation  |                                                 |
\*---------------------------------------------------------------------------*/
FoamFile
{
    version     2.0;
    format      ascii;
    arch        "LSB;label=32;scalar=64";
    class       volScalarField;
    location    "0.63";
    object      p;
}
// * * * * * * * * * * * * * * * * * * * * * * * * * * * * * * * * * * * * * //

dimensions      [0 2 -2 0 0 0 0];

internalField   nonuniform List<scalar> 
12600
(
0.095802
-154.68
-204.812
-201.653
-189.268
-177.746
-167.641
-158.601
-150.408
-142.902
-135.956
-129.474
-123.384
-117.628
-112.16
-106.944
-101.948
-97.1464
-92.5177
-88.0431
-83.7068
-79.4949
-75.3955
-71.398
-67.4932
-63.6727
-59.9293
-56.2562
-52.6477
-49.0982
-45.6028
-42.1572
-38.7572
-35.399
-32.0792
-28.7945
-25.5419
-22.3187
-19.1222
-15.9499
-12.7996
-9.66908
-6.55629
-3.45924
-0.37612
2.69491
5.75547
8.80726
11.8517
14.8905
17.9249
20.9564
23.9862
27.0157
30.046
33.0784
36.1137
39.1532
42.1976
45.2478
48.3046
51.3684
54.4401
57.5197
60.6084
63.7051
66.8117
69.9259
73.0507
76.1816
79.3237
82.4692
85.6263
88.7827
91.9513
95.1132
98.2882
101.448
104.623
107.772
110.938
114.065
117.212
120.305
123.42
126.466
129.537
132.523
135.538
138.455
141.403
144.244
147.121
149.883
152.69
155.374
158.12
160.736
163.448
166.042
168.776
171.371
173.795
176.972
178.159
180.84
187.153
187.763
185.269
201.623
213.943
199.111
194.538
216.543
241.763
256.535
262.125
263.605
259.37
258.208
-24.1254
-123.84
-171.326
-181.012
-177.859
-171.173
-163.474
-155.75
-148.361
-141.384
-134.806
-128.59
-122.697
-117.092
-111.74
-106.615
-101.69
-96.9464
-92.3639
-87.927
-83.6213
-79.4347
-75.356
-71.3757
-67.485
-63.6763
-59.9426
-56.2777
-52.6758
-49.1318
-45.641
-42.199
-38.802
-35.4462
-32.1283
-28.845
-25.5935
-22.3711
-19.1751
-16.0031
-12.853
-9.72239
-6.60942
-3.51207
-0.428556
2.64294
5.70404
8.75642
11.8015
14.841
17.8761
20.9083
23.9388
26.9691
30.0001
33.0332
36.0693
39.1096
42.1547
45.2056
48.2631
51.3277
54.4002
57.4805
60.5698
63.6672
66.7746
69.8894
73.0149
76.1465
79.2892
82.4354
85.5932
88.7503
91.9195
95.0821
98.2577
101.419
104.594
107.744
110.91
114.038
117.185
120.279
123.394
126.441
129.513
132.5
135.515
138.433
141.382
144.224
147.1
149.864
152.671
155.356
158.101
160.718
163.431
166.025
168.759
171.356
173.777
176.959
178.153
180.811
187.129
187.778
185.24
201.521
213.939
199.194
194.52
216.4
241.63
256.461
262.095
263.608
259.387
258.211
-40.9949
-102.462
-145.286
-162.795
-166.174
-163.596
-158.504
-152.399
-146.01
-139.673
-133.527
-127.614
-121.942
-116.501
-111.275
-106.247
-101.399
-96.7154
-92.1816
-87.7838
-83.5101
-79.3495
-75.2922
-71.3295
-67.4534
-63.6568
-59.9331
-56.2764
-52.6814
-49.1431
-45.657
-42.219
-38.8251
-35.4719
-32.156
-28.8744
-25.6242
-22.4028
-19.2075
-16.0361
-12.8862
-9.75579
-6.64285
-3.54542
-0.461727
2.61003
5.67144
8.7242
11.7697
14.8096
17.8452
20.8779
23.909
26.9398
29.9714
33.0051
36.0417
39.0825
42.1282
45.1797
48.2377
51.3028
54.3759
57.4567
60.5466
63.6445
66.7523
69.8677
72.9937
76.1258
79.269
82.4156
85.5739
88.7314
91.9011
95.0642
98.2402
101.402
104.577
107.728
110.894
114.023
117.17
120.264
123.381
126.428
129.5
132.487
135.503
138.421
141.37
144.213
147.09
149.853
152.661
155.346
158.092
160.709
163.422
166.017
168.75
171.348
173.768
176.953
178.148
180.798
187.118
187.789
185.219
201.467
213.942
199.241
194.5
216.332
241.562
256.423
262.08
263.611
259.395
258.212
-48.9653
-88.7778
-124.228
-144.787
-153.045
-154.39
-152.132
-147.963
-142.861
-137.385
-131.825
-126.323
-120.947
-115.723
-110.662
-105.76
-101.01
-96.4051
-91.9336
-87.5863
-83.3536
-79.2265
-75.1969
-71.2571
-67.4
-63.6192
-59.9087
-56.2631
-52.6773
-49.1468
-45.6671
-42.2345
-38.8452
-35.4957
-32.1829
-28.9039
-25.6558
-22.436
-19.2421
-16.0718
-12.9227
-9.79291
-6.68038
-3.58322
-0.499653
2.57209
5.63358
8.68651
11.7323
14.7725
17.8084
20.8415
23.8729
26.9042
29.9362
32.9704
36.0075
39.0488
42.095
45.147
48.2056
51.2712
54.3447
57.4261
60.5165
63.6149
66.7232
69.8391
72.9656
76.0982
79.2419
82.3891
85.5478
88.7059
91.8761
95.0396
98.2162
101.378
104.554
107.705
110.872
114.001
117.149
120.244
123.36
126.408
129.481
132.469
135.485
138.404
141.353
144.196
147.073
149.838
152.645
155.331
158.078
160.695
163.408
166.003
168.736
171.336
173.754
176.943
178.141
180.774
187.101
187.8
185.187
201.388
213.95
199.303
194.47
216.209
241.46
256.37
262.061
263.616
259.408
258.214
-54.068
-80.5761
-107.511
-127.21
-138.357
-143.155
-143.831
-141.919
-138.457
-134.143
-129.405
-124.49
-119.538
-114.628
-109.801
-105.077
-100.466
-95.9689
-91.5833
-87.3048
-83.1277
-79.0461
-75.0537
-71.1446
-67.3129
-63.5533
-59.8605
-56.2297
-52.6563
-49.1362
-45.6653
-42.24
-38.8568
-35.5125
-32.2041
-28.9286
-25.6835
-22.4662
-19.2743
-16.1055
-12.9578
-9.82899
-6.71722
-3.62061
-0.537417
2.5341
5.59551
8.64845
11.6943
14.7347
17.7709
20.8043
23.8362
26.8678
29.9003
32.9349
35.9726
39.0144
42.0611
45.1136
48.1727
51.2389
54.313
57.3949
60.4858
63.5848
66.6937
69.8102
72.9372
76.0704
79.2147
82.3624
85.5217
88.6803
91.851
95.0151
98.1922
101.355
104.531
107.683
110.85
113.98
117.128
120.224
123.341
126.389
129.462
132.451
135.467
138.387
141.337
144.18
147.058
149.823
152.631
155.317
158.064
160.682
163.395
165.99
168.724
171.324
173.741
176.934
178.134
180.753
187.087
187.811
185.151
201.313
213.964
199.363
194.429
216.097
241.364
256.321
262.043
263.622
259.42
258.215
-57.4046
-75.5706
-95.1997
-112.101
-123.967
-130.918
-134.001
-134.277
-132.626
-129.718
-126.037
-121.908
-117.542
-113.071
-108.576
-104.107
-99.6921
-95.3484
-91.0838
-86.9017
-82.8021
-78.7832
-74.842
-70.975
-67.1781
-63.4472
-59.7784
-56.1676
-52.6111
-49.105
-45.646
-42.2307
-38.856
-35.5187
-32.2163
-28.9458
-25.7049
-22.4911
-19.3021
-16.1358
-12.99
-9.8628
-6.75232
-3.65671
-0.57429
2.49667
5.55768
8.61038
11.6562
14.6965
17.7328
20.7664
23.7985
26.8304
29.8633
32.8983
35.9363
38.9785
42.0257
45.0787
48.1383
51.205
54.2796
57.3621
60.4536
63.5531
66.6626
69.7795
72.9072
76.0408
79.1857
82.3339
85.4938
88.6529
91.8242
94.9889
98.1666
101.329
104.507
107.659
110.827
113.957
117.106
120.202
123.32
126.368
129.442
132.431
135.448
138.368
141.319
144.163
147.041
149.806
152.615
155.302
158.049
160.667
163.38
165.975
168.709
171.311
173.726
176.925
178.126
180.726
187.073
187.823
185.107
201.231
213.986
199.424
194.376
215.962
241.259
256.269
262.026
263.63
259.433
258.215
-59.0719
-72.1032
-86.4487
-100.165
-111.269
-119.003
-123.583
-125.574
-125.573
-124.109
-121.615
-118.431
-114.804
-110.906
-106.857
-102.735
-98.5928
-94.4634
-90.3689
-86.3225
-82.332
-78.4013
-74.5319
-70.7235
-66.9749
-63.284
-59.6484
-56.0652
-52.5318
-49.0452
-45.6025
-42.2009
-38.8378
-35.5103
-32.2161
-28.9527
-25.7176
-22.5088
-19.324
-16.1611
-13.0182
-9.89339
-6.78489
-3.69089
-0.609758
2.46018
5.52041
8.57253
11.6179
14.658
17.6941
20.7277
23.7599
26.792
29.825
32.8603
35.8987
38.9413
41.9889
45.0423
48.1024
51.1696
54.2447
57.3276
60.4196
63.5197
66.6297
69.7472
72.8754
76.0097
79.1551
82.3039
85.4643
88.6241
91.796
94.9612
98.1394
101.303
104.481
107.633
110.802
113.933
117.083
120.179
123.297
126.347
129.421
132.411
135.428
138.349
141.3
144.145
147.024
149.789
152.598
155.286
158.033
160.652
163.365
165.96
168.695
171.298
173.711
176.916
178.116
180.699
187.06
187.834
185.055
201.145
214.017
199.484
194.307
215.816
241.15
256.218
262.01
263.64
259.447
258.216
-59.5758
-69.3571
-80.0952
-90.9628
-100.633
-108.2
-113.442
-116.537
-117.807
-117.603
-116.258
-114.065
-111.265
-108.044
-104.543
-100.861
-97.0722
-93.2272
-89.3618
-85.5006
-81.6602
-77.8517
-74.0821
-70.3557
-66.6746
-63.0395
-59.4501
-55.9055
-52.4043
-48.9447
-45.5246
-42.1422
-38.7951
-35.4812
-32.1985
-28.9448
-25.718
-22.5161
-19.3371
-16.1792
-13.0405
-9.91915
-6.81355
-3.72196
-0.64282
2.4255
5.48442
8.53551
11.5801
14.6196
17.6553
20.6886
23.7206
26.7527
29.7858
32.8212
35.8598
38.9027
41.9506
45.0044
48.0649
51.1325
54.2081
57.2915
60.384
63.4846
66.5952
69.7133
72.842
75.9768
79.1228
82.2722
85.4332
88.5936
91.7661
94.9319
98.1108
101.275
104.453
107.607
110.776
113.908
117.058
120.155
123.274
126.324
129.399
132.389
135.407
138.329
141.28
144.125
147.005
149.771
152.581
155.269
158.016
160.635
163.348
165.944
168.679
171.283
173.694
176.906
178.104
180.668
187.048
187.845
184.992
201.053
214.059
199.544
194.219
215.65
241.033
256.165
261.994
263.651
259.461
258.216
-59.3627
-66.9425
-75.1933
-83.7683
-91.8778
-98.7788
-104.089
-107.747
-109.862
-110.627
-110.262
-108.99
-107.012
-104.505
-101.609
-98.4354
-95.0686
-91.5727
-87.9954
-84.3718
-80.7274
-77.0809
-73.4452
-69.8298
-66.2407
-62.6822
-59.1567
-55.6655
-52.209
-48.7868
-45.3983
-42.0424
-38.7177
-35.4229
-32.1562
-28.916
-25.7007
-22.5085
-19.3378
-16.1869
-13.0541
-9.93775
-6.83636
-3.74829
-0.672091
2.39378
5.4507
8.50014
11.5434
14.5819
17.6168
20.6495
23.681
26.7128
29.7458
32.7812
35.8198
38.8628
41.911
44.9651
48.0259
51.0938
54.1698
57.2537
60.3467
63.4478
66.5588
69.6775
72.8068
75.9421
79.0887
82.2387
85.4004
88.5613
91.7345
94.9009
98.0804
101.245
104.424
107.578
110.748
113.88
117.031
120.129
123.249
126.299
129.375
132.366
135.385
138.307
141.259
144.105
146.985
149.752
152.562
155.25
157.998
160.618
163.331
165.927
168.662
171.268
173.677
176.896
178.091
180.635
187.039
187.856
184.918
200.956
214.114
199.601
194.111
215.465
240.908
256.11
261.979
263.664
259.476
258.215
-58.6763
-64.6657
-71.1468
-77.963
-84.6564
-90.6989
-95.7154
-99.5321
-102.124
-103.558
-103.955
-103.463
-102.233
-100.41
-98.125
-95.4852
-92.5792
-89.4773
-86.2346
-82.8941
-79.4886
-76.0433
-72.5771
-69.1041
-65.6351
-62.1776
-58.7372
-55.3177
-51.9216
-48.5506
-45.2053
-41.8859
-38.5921
-35.3235
-32.079
-28.8577
-25.6585
-22.4799
-19.3208
-16.1797
-13.0552
-9.94598
-6.85057
-3.76756
-0.695629
2.36667
5.42059
8.46755
11.5087
14.5456
17.5791
20.6108
23.6415
26.6727
29.7052
32.7403
35.7788
38.8218
41.87
44.9242
47.9852
51.0535
54.1298
57.2141
60.3075
63.409
66.5206
69.6398
72.7696
75.9056
79.0528
82.2033
85.3656
88.5272
91.701
94.8681
98.0483
101.214
104.394
107.548
110.719
113.852
117.003
120.102
123.222
126.274
129.35
132.342
135.361
138.284
141.237
144.083
146.964
149.731
152.542
155.231
157.979
160.599
163.313
165.909
168.644
171.251
173.659
176.886
178.076
180.598
187.031
187.867
184.83
200.852
214.185
199.656
193.98
215.257
240.775
256.053
261.964
263.679
259.492
258.214
-57.6462
-62.4426
-67.6238
-73.1065
-78.6104
-83.7816
-88.3187
-92.0263
-94.8094
-96.6517
-97.5952
-97.72
-97.1256
-95.9204
-94.2114
-92.0958
-89.6581
-86.9693
-84.0878
-81.061
-77.9265
-74.7146
-71.4489
-68.148
-64.8261
-61.4945
-58.1617
-54.8342
-51.5166
-48.2125
-44.9243
-41.6537
-38.4016
-35.1684
-31.9543
-28.7589
-25.5817
-22.4219
-19.2789
-16.1514
-13.0386
-9.93933
-6.85238
-3.77655
-0.710695
2.34646
5.39604
8.43936
11.4775
14.5118
17.5433
20.5732
23.6026
26.6327
29.6644
32.6989
35.7369
38.7796
41.8277
44.8819
47.943
51.0114
54.0879
57.1725
60.2663
63.3683
66.4804
69.6
72.7304
75.8669
79.0147
82.1659
85.3289
88.4911
91.6656
94.8334
98.0143
101.18
104.361
107.516
110.688
113.822
116.974
120.073
123.194
126.246
129.323
132.316
135.336
138.26
141.213
144.06
146.941
149.71
152.521
155.21
157.959
160.579
163.293
165.889
168.625
171.233
173.64
176.877
178.059
180.556
187.026
187.876
184.728
200.741
214.272
199.707
193.824
215.025
240.63
255.993
261.948
263.695
259.509
258.212
-56.3515
-60.2339
-64.4354
-68.8987
-73.4349
-77.809
-81.8027
-85.2441
-88.0169
-90.0587
-91.3567
-91.9381
-91.8565
-91.1816
-89.9925
-88.3688
-86.3853
-84.1087
-81.5968
-78.8983
-76.054
-73.0971
-70.0548
-66.9489
-63.7971
-60.6134
-57.409
-54.1929
-50.9718
-47.7512
-44.5352
-41.3268
-38.1285
-34.9416
-31.7674
-28.6063
-25.4586
-22.3242
-19.2029
-16.0942
-12.9974
-9.91185
-6.83664
-3.77083
-0.713535
2.33634
5.37974
8.41783
11.4516
14.4822
17.5105
20.5379
23.5652
26.5935
29.6238
32.6572
35.6944
38.7365
41.7841
44.8381
47.8991
50.9675
54.0442
57.1289
60.223
63.3253
66.4378
69.5579
72.6889
75.8259
78.9743
82.1262
85.2898
88.4527
91.6279
94.7964
97.9781
101.145
104.326
107.482
110.655
113.789
116.943
120.043
123.165
126.218
129.295
132.289
135.31
138.234
141.188
144.036
146.918
149.687
152.498
155.189
157.938
160.558
163.272
165.868
168.606
171.214
173.619
176.867
178.039
180.511
187.03
187.886
184.609
200.623
214.378
199.754
193.643
214.765
240.476
255.929
261.93
263.713
259.526
258.21
-54.8524
-58.024
-61.4689
-65.1396
-68.8964
-72.5792
-76.0375
-79.138
-81.7705
-83.8557
-85.3494
-86.2415
-86.5499
-86.3102
-85.5724
-84.3947
-82.8378
-80.9596
-78.8137
-76.4474
-73.902
-71.2124
-68.4079
-65.5131
-62.5481
-59.5293
-56.4704
-53.3822
-50.2735
-47.1516
-44.022
-40.8894
-37.7571
-34.6279
-31.5039
-28.3865
-25.2768
-22.1755
-19.0828
-15.9988
-12.9234
-9.85625
-6.79694
-3.74482
-0.699275
2.34052
5.37531
8.40604
11.4335
14.4588
17.4827
20.5063
23.5304
26.5562
29.5843
32.616
35.6518
38.6928
41.7396
44.7929
47.8535
50.9217
53.9983
57.0831
60.1774
63.28
66.3928
69.5133
72.6448
75.7823
78.9314
82.0838
85.2482
88.4117
91.5878
94.757
97.9396
101.107
104.29
107.446
110.62
113.755
116.909
120.01
123.133
126.187
129.265
132.26
135.282
138.207
141.162
144.011
146.893
149.662
152.475
155.166
157.915
160.536
163.25
165.846
168.585
171.194
173.598
176.857
178.016
180.459
187.018
187.895
184.472
200.498
214.51
199.798
193.438
214.486
240.303
255.858
261.908
263.73
259.544
258.208
-53.1998
-55.8072
-58.6543
-61.6983
-64.8266
-67.9252
-70.8922
-73.631
-76.0501
-78.071
-79.6368
-80.7156
-81.2992
-81.3978
-81.0355
-80.2486
-79.0805
-77.5776
-75.7858
-73.748
-71.5037
-69.0875
-66.53
-63.857
-61.0907
-58.2495
-55.3489
-52.4016
-49.4184
-46.4078
-43.377
-40.3318
-37.2769
-34.2161
-31.1525
-28.0882
-25.0252
-21.9649
-18.9081
-15.8556
-12.8077
-9.76445
-6.72597
-3.69194
-0.662077
2.36416
5.38725
8.40792
11.4267
14.4446
17.4622
20.4805
23.5001
26.522
29.547
32.576
35.6097
38.6489
41.6944
44.7466
47.8064
50.874
53.9503
57.0349
60.1292
63.2318
66.3449
69.4658
72.5977
75.7357
78.8854
82.0384
85.2035
88.3678
91.5447
94.7147
97.8982
101.067
104.25
107.408
110.582
113.718
116.873
119.975
123.099
126.154
129.234
132.229
135.252
138.178
141.133
143.983
146.866
149.637
152.449
155.141
157.891
160.512
163.226
165.823
168.563
171.172
173.575
176.848
177.991
180.404
187.021
187.903
184.316
200.366
214.66
199.839
193.21
214.18
240.116
255.778
261.881
263.746
259.564
258.207
-51.4221
-53.5759
-55.9439
-58.4857
-61.1046
-63.7151
-66.2481
-68.6366
-70.8101
-72.7001
-74.2488
-75.4146
-76.1735
-76.5182
-76.4531
-75.9947
-75.1696
-74.0103
-72.5527
-70.8332
-68.8867
-66.746
-64.4408
-61.9973
-59.4388
-56.785
-54.053
-51.2573
-48.4099
-45.521
-42.5993
-39.6516
-36.6838
-33.7008
-30.7064
-27.7039
-24.6959
-21.6843
-18.6707
-15.6564
-12.6422
-9.62878
-6.61649
-3.60543
-0.595699
2.41296
5.42071
8.42805
11.4353
14.4432
17.4522
20.4631
23.4764
26.4929
29.5134
32.5386
35.5691
38.6057
41.6489
44.6995
47.7579
50.8245
53.9
56.9841
60.0781
63.1806
66.2938
69.4149
72.5471
75.6856
78.8359
81.9895
85.1554
88.3204
91.4982
94.669
97.8535
101.023
104.207
107.366
110.542
113.679
116.835
119.938
123.063
126.119
129.2
132.196
135.22
138.147
141.104
143.954
146.838
149.61
152.423
155.115
157.866
160.487
163.201
165.798
168.539
171.149
173.551
176.838
177.963
180.339
187.031
187.91
184.143
200.229
214.828
199.883
192.964
213.855
239.91
255.685
261.844
263.759
259.584
258.207
-49.5405
-51.3263
-53.3057
-55.4403
-57.6434
-59.8473
-62.0048
-64.0708
-65.9936
-67.7173
-69.1898
-70.3679
-71.2206
-71.7292
-71.8855
-71.6909
-71.1565
-70.3016
-69.151
-67.7324
-66.0747
-64.2066
-62.1554
-59.9464
-57.6027
-55.1447
-52.5904
-49.9555
-47.2533
-44.4954
-41.6916
-38.8502
-35.978
-33.0809
-30.1638
-27.2306
-24.2847
-21.3289
-18.3652
-15.3955
-12.4211
-9.44315
-6.46239
-3.47932
-0.494365
2.4924
5.48086
8.47124
11.4637
14.4586
17.4562
20.4573
23.462
26.4713
29.4855
32.5053
35.5313
38.5641
41.6042
44.6521
47.7084
50.7733
53.8475
56.9306
60.024
63.1261
66.2391
69.3601
72.4926
75.6315
78.7822
81.9364
85.103
88.2688
91.4476
94.6193
97.8049
100.975
104.161
107.321
110.498
113.636
116.794
119.898
123.024
126.081
129.163
132.161
135.186
138.114
141.072
143.924
146.808
149.581
152.394
155.088
157.839
160.461
163.175
165.771
168.514
171.124
173.526
176.828
177.931
180.275
187.034
187.919
183.946
200.084
215.014
199.926
192.706
213.51
239.684
255.576
261.794
263.765
259.607
258.209
-47.5721
-49.0567
-50.7179
-52.5188
-54.3797
-56.2445
-58.0806
-59.8585
-61.5413
-63.0854
-64.4467
-65.5853
-66.4688
-67.0732
-67.3826
-67.3885
-67.0901
-66.495
-65.617
-64.475
-63.0904
-61.4865
-59.6866
-57.7137
-55.5894
-53.3338
-50.9651
-48.4995
-45.9515
-43.3334
-40.6563
-37.9294
-35.1608
-32.3573
-29.5247
-26.6678
-23.7908
-20.897
-17.9893
-15.07
-12.141
-9.20373
-6.25955
-3.30925
-0.353609
2.60699
5.57214
8.54181
11.5159
14.4945
17.4779
20.4664
23.4601
26.4598
29.4657
32.4783
35.4981
38.5256
41.5612
44.6054
47.6586
50.7208
53.793
56.8745
59.9667
63.0679
66.1804
69.3011
72.4336
75.5725
78.7237
81.8784
85.0457
88.2122
91.392
94.5647
97.7516
100.923
104.11
107.271
110.45
113.589
116.748
119.854
122.982
126.04
129.124
132.123
135.149
138.079
141.037
143.891
146.776
149.55
152.364
155.058
157.81
160.432
163.147
165.743
168.488
171.098
173.499
176.816
177.896
180.201
187.047
187.924
183.749
199.931
215.213
199.973
192.476
213.155
239.433
255.444
261.724
263.761
259.631
258.215
-45.5301
-46.7665
-48.1647
-49.6896
-51.2668
-52.848
-54.4103
-55.9353
-57.397
-58.7623
-59.9953
-61.0615
-61.9306
-62.5773
-62.982
-63.1307
-63.0148
-62.6325
-61.9884
-61.0927
-59.9593
-58.6049
-57.0482
-55.3084
-53.4046
-51.3554
-49.1784
-46.8897
-44.504
-42.0343
-39.4925
-36.8887
-34.2318
-31.5296
-28.7889
-26.0152
-23.2136
-20.388
-17.5421
-14.6786
-11.8002
-8.90863
-6.00571
-3.09265
-0.170596
2.75978
5.69775
8.64306
11.5953
14.5545
17.5204
20.4935
23.4736
26.4612
29.4564
32.4598
35.4715
38.4919
41.5215
44.5605
47.6093
50.6679
53.737
56.8161
59.9063
63.006
66.1174
69.2373
72.3694
75.5082
78.6596
81.8145
84.9825
88.1497
91.3305
94.5042
97.6924
100.865
104.054
107.216
110.396
113.537
116.698
119.805
122.935
125.995
129.08
132.081
135.109
138.04
141
143.855
146.742
149.517
152.332
155.027
157.779
160.402
163.117
165.713
168.46
171.07
173.47
176.804
177.859
180.123
187.058
187.932
183.548
199.771
215.417
200.031
192.052
212.796
239.155
255.283
261.627
263.742
259.66
258.229
-43.4249
-44.4553
-45.6346
-46.9294
-48.2697
-49.613
-50.9425
-52.2475
-53.5102
-54.7059
-55.8058
-56.7813
-57.6057
-58.2552
-58.7093
-58.9515
-58.9688
-58.7533
-58.3025
-57.6188
-56.7094
-55.5845
-54.2572
-52.7424
-51.0559
-49.2137
-47.2318
-45.1254
-42.9089
-40.5954
-38.1971
-35.7247
-33.1878
-30.5951
-27.9539
-25.2708
-22.5513
-19.8004
-17.0222
-14.2202
-11.3975
-8.55658
-5.69954
-2.82805
0.0563344
2.95261
5.85973
8.77717
11.7042
14.6408
17.5864
20.5411
23.5049
26.4779
29.4601
32.4519
35.4534
38.4649
41.4867
44.5188
47.5618
50.6154
53.6803
56.7557
59.843
62.9403
66.05
69.1685
72.2997
75.4378
78.5891
81.744
84.9125
88.0802
91.262
94.4365
97.6262
100.8
103.99
107.154
110.336
113.479
116.642
119.751
122.883
125.945
129.033
132.035
135.065
137.998
140.96
143.817
146.705
149.481
152.298
154.994
157.747
160.371
163.085
165.682
168.431
171.04
173.439
176.79
177.822
180.042
187.051
187.943
183.304
199.605
215.616
200.102
191.851
212.444
238.847
255.082
261.495
263.701
259.689
258.251
-41.2648
-42.1234
-43.1193
-44.2209
-45.3623
-46.5049
-47.6365
-48.7512
-49.8375
-50.8769
-51.8466
-52.7235
-53.485
-54.1099
-54.5788
-54.8746
-54.9827
-54.8917
-54.5941
-54.0868
-53.3709
-52.4508
-51.3344
-50.0316
-48.5542
-46.9153
-45.1283
-43.2069
-41.1644
-39.0134
-36.7658
-34.4326
-32.0239
-29.5486
-27.0149
-24.4299
-21.8
-19.1306
-16.4266
-13.6921
-10.9308
-8.14559
-5.33924
-2.51382
0.328711
3.18698
6.05958
8.94569
11.8443
14.7551
17.6774
20.6111
23.5559
26.5118
29.4786
32.4566
35.4458
38.4464
41.4584
44.482
47.5174
50.5644
53.6237
56.6943
59.7775
62.8714
65.9783
69.0946
72.2242
75.3611
78.5116
81.6661
84.8348
88.0027
91.1853
94.3606
97.5517
100.727
103.919
107.084
110.269
113.413
116.579
119.69
122.825
125.889
128.979
131.984
135.017
137.952
140.916
143.775
146.664
149.443
152.261
154.959
157.712
160.337
163.052
165.649
168.399
171.01
173.407
176.773
177.785
179.953
187.071
187.958
183.089
199.432
215.796
200.193
191.667
212.111
238.507
254.834
261.318
263.63
259.731
258.288
-39.0566
-39.7712
-40.6126
-41.5511
-42.5244
-43.4971
-44.46
-45.4107
-46.342
-47.2401
-48.0872
-48.8646
-49.5536
-50.1363
-50.5952
-50.9141
-51.0783
-51.075
-50.8938
-50.5279
-49.9739
-49.2314
-48.3033
-47.195
-45.9144
-44.4707
-42.8747
-41.1375
-39.2709
-37.2863
-35.195
-33.0077
-30.7344
-28.3843
-25.9659
-23.4868
-20.9539
-18.3732
-15.7503
-13.0898
-10.3959
-7.67211
-4.92172
-2.14723
0.64892
3.46499
6.29918
9.15037
12.0172
14.8992
17.7952
20.7051
23.6282
26.5645
29.5135
32.4756
35.4503
38.4378
41.4382
44.4514
47.4776
50.5164
53.5685
56.6328
59.7106
62.7998
65.9029
69.0159
72.143
75.2777
78.4269
81.5804
84.7486
87.9163
91.0995
94.2753
97.4677
100.644
103.838
107.005
110.192
113.339
116.508
119.621
122.759
125.825
128.919
131.926
134.962
137.9
140.867
143.729
146.62
149.401
152.221
154.921
157.676
160.303
163.018
165.616
168.367
170.979
173.373
176.753
177.752
179.869
187.076
187.979
182.901
199.254
215.94
200.309
191.557
211.813
238.131
254.526
261.085
263.522
259.771
258.342
-36.806
-37.3995
-38.1101
-38.9101
-39.7406
-40.5689
-41.3877
-42.1971
-42.993
-43.7649
-44.4991
-45.1805
-45.7939
-46.3242
-46.7566
-47.0763
-47.2695
-47.3234
-47.2265
-46.9698
-46.5467
-45.9535
-45.1891
-44.2549
-43.1546
-41.8942
-40.481
-38.9236
-37.2316
-35.4147
-33.483
-31.4463
-29.3144
-27.0962
-24.8003
-22.4345
-20.0061
-17.5216
-14.9869
-12.4072
-9.78722
-7.13102
-4.44233
-1.72413
1.02067
3.78995
6.58146
9.39378
12.2252
15.0749
17.9415
20.8246
23.7233
26.6375
29.5664
32.5101
35.4682
38.4407
41.4275
44.4284
47.4436
50.4725
53.5159
56.5724
59.6434
62.7266
65.8245
68.9331
72.0565
75.1882
78.3351
81.4866
84.6538
87.8207
91.0038
94.1798
97.3731
100.55
103.746
106.915
110.105
113.253
116.425
119.541
122.683
125.753
128.85
131.861
134.9
137.842
140.812
143.677
146.572
149.357
152.178
154.882
157.638
160.267
162.983
165.582
168.334
170.95
173.338
176.729
177.726
179.794
187.066
188.009
182.754
199.069
216.026
200.459
191.546
211.568
237.719
254.149
260.786
263.366
259.822
258.417
-34.5177
-35.0091
-35.6086
-36.2903
-36.9988
-37.7039
-38.3994
-39.0871
-39.765
-40.4253
-41.0572
-41.6485
-42.1871
-42.6605
-43.0561
-43.3612
-43.5633
-43.6503
-43.6108
-43.4349
-43.1144
-42.6431
-42.017
-41.2343
-40.2955
-39.203
-37.961
-36.5754
-35.0532
-33.4021
-31.6305
-29.7472
-27.7608
-25.6798
-23.5126
-21.2668
-18.95
-16.5688
-14.1294
-11.6375
-9.09823
-6.51606
-3.89521
-1.23908
1.44896
4.16638
6.91052
9.6796
12.4716
15.2852
18.119
20.9721
23.8435
26.7328
29.639
32.562
35.5012
38.4566
41.4278
44.4146
47.417
50.4343
53.4673
56.5144
59.5771
62.6529
65.7443
68.8471
71.9658
75.0932
78.2368
81.3854
84.5506
87.7158
90.8983
94.0736
97.2675
100.445
103.643
106.813
110.005
113.156
116.332
119.45
122.596
125.669
128.771
131.786
134.83
137.776
140.751
143.62
146.519
149.308
152.132
154.84
157.598
160.231
162.948
165.55
168.301
170.923
173.305
176.701
177.715
179.711
187.05
188.052
182.674
198.877
216.032
200.655
191.669
211.398
237.271
253.692
260.412
263.155
259.876
258.517
-32.1959
-32.6009
-33.1055
-33.6859
-34.2899
-34.8893
-35.4791
-36.0618
-36.637
-37.1991
-37.7393
-38.2479
-38.715
-39.1304
-39.4838
-39.7643
-39.961
-40.0629
-40.0594
-39.9406
-39.6976
-39.3228
-38.8105
-38.1565
-37.3585
-36.4163
-35.3312
-34.1062
-32.7457
-31.2554
-29.6416
-27.9115
-26.0725
-24.1323
-22.0985
-19.9784
-17.7793
-15.508
-13.1708
-10.7736
-8.32182
-5.82031
-3.27368
-0.685728
1.93975
4.59985
7.2915
10.0126
12.7606
15.5341
18.3312
21.1509
23.9916
26.8529
29.7336
32.6333
35.5513
38.4873
41.4408
44.4114
47.3991
50.4031
53.424
56.4602
59.5131
62.58
65.6636
68.7593
71.8719
74.9938
78.1329
81.2775
84.4398
87.6023
90.7832
93.9572
97.1509
100.328
103.527
106.698
109.893
113.045
116.225
119.346
122.497
125.574
128.681
131.7
134.75
137.701
140.681
143.556
146.46
149.254
152.082
154.796
157.557
160.195
162.915
165.521
168.269
170.903
173.275
176.671
177.725
179.651
187.014
188.115
182.686
198.673
215.931
200.919
191.973
211.327
236.791
253.149
259.958
262.881
259.933
258.644
-29.8442
-30.1759
-30.5994
-31.0925
-31.6066
-32.1151
-32.6138
-33.106
-33.592
-34.0679
-34.5265
-34.96
-35.3604
-35.7194
-36.0284
-36.2784
-36.4601
-36.5637
-36.5797
-36.4988
-36.3121
-36.0115
-35.5904
-35.0429
-34.3651
-33.5543
-32.6096
-31.5315
-30.322
-28.9845
-27.5233
-25.9436
-24.2515
-22.4533
-20.5557
-18.5654
-16.4892
-14.3335
-12.1047
-9.80862
-7.45094
-5.03666
-2.57072
-0.0572336
2.49964
5.09664
7.73033
10.3982
13.0975
15.8264
18.5825
21.3648
24.1713
27.0013
29.8533
32.7268
35.6209
38.535
41.4685
44.4209
47.392
50.3807
53.3878
56.4114
59.453
62.5095
65.5838
68.6711
71.7763
74.8915
78.0249
81.1643
84.3225
87.4813
90.6597
93.8315
97.0241
100.2
103.4
106.571
109.768
112.922
116.105
119.229
122.385
125.465
128.579
131.603
134.659
137.616
140.603
143.485
146.395
149.196
152.03
154.751
157.516
160.163
162.884
165.498
168.242
170.893
173.252
176.64
177.768
179.624
186.959
188.209
182.824
198.455
215.7
201.271
192.507
211.382
236.286
252.516
259.42
262.539
259.989
258.796
-27.4657
-27.7351
-28.0889
-28.5068
-28.9432
-29.3733
-29.7935
-30.2073
-30.6159
-31.0162
-31.4027
-31.7687
-32.1078
-32.4133
-32.6781
-32.8948
-33.0554
-33.1516
-33.1749
-33.1169
-32.9692
-32.724
-32.3739
-31.9127
-31.335
-30.6367
-29.815
-28.8686
-27.7971
-26.6019
-25.2854
-23.8507
-22.3024
-20.6451
-18.8845
-17.0262
-15.0764
-13.0408
-10.9257
-8.73648
-6.47898
-4.15823
-1.77932
0.653408
3.13552
5.66346
8.23345
10.8427
13.488
16.1673
18.8781
21.6186
24.3869
27.1818
30.0018
32.8459
35.7131
38.6025
41.5136
44.4453
47.3976
50.3691
53.3606
56.3697
59.3983
62.4429
65.5066
68.584
71.6805
74.7878
77.9142
81.0474
84.2003
87.3544
90.5293
93.6977
96.8885
100.063
103.262
106.433
109.631
112.786
115.972
119.099
122.259
125.344
128.464
131.493
134.557
137.52
140.516
143.405
146.323
149.134
151.974
154.706
157.476
160.135
162.859
165.486
168.222
170.897
173.244
176.613
177.858
179.639
186.882
188.347
183.125
198.226
215.316
201.745
193.323
211.59
235.765
251.796
258.801
262.131
260.038
258.971
-25.0633
-25.2796
-25.5736
-25.9263
-26.2953
-26.6576
-27.0099
-27.3558
-27.697
-28.0313
-28.354
-28.6598
-28.9434
-29.1991
-29.4214
-29.604
-29.7402
-29.823
-29.8449
-29.7986
-29.6763
-29.4708
-29.1748
-28.7818
-28.2858
-27.6819
-26.966
-26.135
-25.1873
-24.1222
-22.9401
-21.6426
-20.2324
-18.7126
-17.0875
-15.3615
-13.5397
-11.6273
-9.62968
-7.55218
-5.40021
-3.17873
-0.892835
1.45304
3.85429
6.30714
8.80758
11.3525
13.9385
16.5631
19.2234
21.9176
24.6433
27.3991
30.1833
32.9945
35.8315
38.6932
41.579
44.4874
47.4186
50.3706
53.3443
56.3371
59.3511
62.382
65.4336
68.4997
71.5862
74.6842
77.8025
80.9282
84.0749
87.223
90.3934
93.5577
96.7456
99.9174
103.115
106.285
109.484
112.64
115.828
118.957
122.122
125.21
128.337
131.372
134.444
137.414
140.419
143.318
146.244
149.068
151.915
154.662
157.437
160.113
162.841
165.486
168.213
170.921
173.257
176.594
178.007
179.716
186.785
188.545
183.625
197.998
214.77
202.368
194.453
211.966
235.242
250.999
258.112
261.659
260.074
259.164
-22.6395
-22.8107
-23.053
-23.3491
-23.6596
-23.963
-24.2565
-24.5435
-24.8261
-25.1026
-25.3693
-25.6216
-25.855
-26.0653
-26.2475
-26.3966
-26.507
-26.5727
-26.5874
-26.5446
-26.4374
-26.2591
-26.0031
-25.6629
-25.2324
-24.7061
-24.0794
-23.3481
-22.5092
-21.5606
-20.5013
-19.3312
-18.0513
-16.6633
-15.1698
-13.5742
-11.8802
-10.0921
-8.21458
-6.25225
-4.21011
-2.09282
0.0946949
2.34803
4.6626
7.03446
9.45949
11.9343
14.4554
17.0198
19.6246
22.2675
24.9461
27.6583
30.4025
33.1769
35.9803
38.8109
41.6683
44.5505
47.4579
50.3878
53.3417
56.316
59.3133
62.3288
65.3666
68.4199
71.495
74.5823
77.6914
80.8083
83.9476
87.0888
90.2538
93.4128
96.5971
99.7653
102.961
106.129
109.328
112.484
115.675
118.805
121.974
125.066
128.199
131.24
134.32
137.299
140.313
143.223
146.16
148.998
151.854
154.619
157.402
160.1
162.832
165.504
168.219
170.967
173.303
176.59
178.222
179.874
186.675
188.808
184.345
197.79
214.073
203.106
195.896
212.514
234.73
250.142
257.365
261.13
260.09
259.365
-20.1967
-20.3294
-20.5272
-20.774
-21.0335
-21.2857
-21.528
-21.7639
-21.9954
-22.2215
-22.4388
-22.6437
-22.8324
-23.0013
-23.1465
-23.2637
-23.3482
-23.395
-23.3986
-23.3535
-23.2537
-23.0932
-22.8658
-22.5656
-22.1865
-21.7232
-21.1704
-20.5235
-19.7787
-18.9329
-17.9838
-16.9299
-15.7708
-14.5069
-13.1393
-11.6699
-10.1015
-8.437
-6.68022
-4.83501
-2.90567
-0.89643
1.18821
3.34399
5.56653
7.85181
10.1958
12.5948
15.0453
17.544
20.088
22.6744
25.3009
27.9649
30.6648
33.3981
36.1639
38.9597
41.7854
44.6382
47.5189
50.424
53.3555
56.3088
59.2875
62.2854
65.3077
68.3463
71.4087
74.4838
77.5823
80.6892
83.8201
86.9533
90.1118
93.2647
96.4445
99.6082
102.802
105.967
109.165
112.32
115.513
118.645
121.817
124.913
128.052
131.099
134.187
137.176
140.199
143.123
146.07
148.925
151.791
154.579
157.37
160.097
162.833
165.539
168.244
171.035
173.386
176.608
178.503
180.126
186.568
189.138
185.279
197.629
213.252
204.045
197.618
213.214
234.246
249.247
256.576
260.554
260.083
259.57
-17.7372
-17.8371
-17.9963
-18.2002
-18.4151
-18.6227
-18.8205
-19.0118
-19.1988
-19.3807
-19.5548
-19.7178
-19.8667
-19.9983
-20.1096
-20.1968
-20.2562
-20.2835
-20.2739
-20.2228
-20.1248
-19.9748
-19.7672
-19.4966
-19.1573
-18.7441
-18.2517
-17.6754
-17.0108
-16.2541
-15.4022
-14.4527
-13.4038
-12.2548
-11.0054