/*--------------------------------*- C++ -*----------------------------------*\
| =========                 |                                                 |
| \\      /  F ield         | OpenFOAM: The Open Source CFD Toolbox           |
|  \\    /   O peration     | Version:  2412                                  |
|   \\  /    A nd           | Website:  www.openfoam.com                      |
|    \\/     M anipulation  |                                                 |
\*---------------------------------------------------------------------------*/
FoamFile
{
    version     2.0;
    format      ascii;
    arch        "LSB;label=32;scalar=64";
    class       surfaceScalarField;
    location    "0.63";
    object      phi_0;
}
// * * * * * * * * * * * * * * * * * * * * * * * * * * * * * * * * * * * * * //

dimensions      [0 3 -1 0 0 0 0];

oriented        oriented;

internalField   nonuniform List<scalar> 
24930
(
0.0179672
0.0127535
-0.0307229
0.0106045
0.00736272
0.00695435
0.00365013
0.00517838
0.00177597
0.0042063
0.000972078
0.00358336
0.000622947
0.0031374
0.000445959
0.00279785
0.000339558
0.00252862
0.000269223
0.00230867
0.000219953
0.00212483
0.000183839
0.00196838
0.000156456
0.00183326
0.000135123
0.00171512
0.000118137
0.00161076
0.000104362
0.00151774
9.30146e-05
0.0014342
8.35405e-05
0.00135867
7.55366e-05
0.00128996
6.87046e-05
0.00122714
6.28193e-05
0.00116943
5.7708e-05
0.00111619
5.32363e-05
0.00106689
4.92986e-05
0.00102108
4.58103e-05
0.000978379
4.27033e-05
0.000938456
3.99224e-05
0.000901033
3.74221e-05
0.000865867
3.51649e-05
0.000832746
3.31194e-05
0.000801486
3.12594e-05
0.000771922
2.95627e-05
0.00074391
2.80104e-05
0.000717323
2.65865e-05
0.000692044
2.52771e-05
0.000667973
2.40704e-05
0.000645016
2.29558e-05
0.00062309
2.19247e-05
0.00060212
2.09689e-05
0.000582037
2.00819e-05
0.000562779
1.92572e-05
0.000544288
1.84902e-05
0.000526511
1.77753e-05
0.000509401
1.71093e-05
0.000492913
1.64875e-05
0.000477004
1.59077e-05
0.000461638
1.53657e-05
0.000446777
1.48604e-05
0.000432389
1.43876e-05
0.000418442
1.39473e-05
0.000404906
1.35354e-05
0.000391754
1.31525e-05
0.000378959
1.27947e-05
0.000366496
1.24631e-05
0.000354343
1.21539e-05
0.000342474
1.18686e-05
0.000330871
1.16035e-05
0.000319511
1.13602e-05
0.000308375
1.11358e-05
0.000297444
1.09308e-05
0.0002867
1.07443e-05
0.000276126
1.05742e-05
0.000265702
1.04234e-05
0.000255417
1.02851e-05
0.000245248
1.01683e-05
0.000235189
1.00585e-05
0.000225214
9.9745e-06
0.000215324
9.88933e-06
0.000205486
9.83749e-06
0.000195713
9.77246e-06
0.000185961
9.75241e-06
0.000176259
9.70167e-06
0.000166545
9.71337e-06
0.000156876
9.6692e-06
0.000147163
9.71289e-06
0.000137498
9.66569e-06
0.000127756
9.74228e-06
0.000118076
9.67949e-06
0.000108286
9.79052e-06
9.85891e-05
9.69732e-06
8.87448e-05
9.84468e-06
7.90408e-05
9.70443e-06
6.91513e-05
9.88979e-06
5.94651e-05
9.68657e-06
4.95541e-05
9.91125e-06
3.99221e-05
9.63225e-06
3.00262e-05
9.89612e-06
2.04862e-05
9.54019e-06
1.06537e-05
9.83269e-06
1.22118e-06
9.43258e-06
-8.5077e-06
9.72901e-06
-1.77892e-05
9.28167e-06
-2.74461e-05
9.657e-06
-3.65904e-05
9.14434e-06
-4.62054e-05
9.61487e-06
-5.52433e-05
9.03789e-06
-6.4994e-05
9.75048e-06
-7.41081e-05
9.11368e-06
-8.43947e-05
1.02861e-05
-9.36444e-05
9.24946e-06
-0.000104135
1.04908e-05
-0.000111859
7.72338e-06
-0.000124862
1.30037e-05
-0.000132701
7.83845e-06
-0.000142627
9.92627e-06
-0.000194331
5.17032e-05
-0.000208482
1.41413e-05
-0.00016595
-4.25305e-05
-0.000290581
0.00012463
-0.000446217
0.000155632
-0.000189245
-0.000256965
-3.13541e-06
-0.000186108
-0.000444661
0.00044152
-0.000927839
0.000483169
-0.000794393
-0.000133446
-0.000312616
-0.000481772
0.000116125
-0.000428737
0.000380761
-0.000264635
0.000491088
-0.000110326
0.000443552
4.75341e-05
-1.54571e-05
0.0336767
0.0163158
-0.0372391
0.027743
0.0132965
0.0221926
0.00920052
0.0179199
0.00604866
0.0148747
0.00401732
0.0127148
0.00278289
0.011128
0.00203272
0.00991116
0.0015564
0.00894407
0.00123631
0.00815383
0.0010102
0.00749367
0.000843995
0.00693232
0.000717806
0.006448
0.000619444
0.00602504
0.000541099
0.00565184
0.000477559
0.00531963
0.000425223
0.00502164
0.000381536
0.00475253
0.000344642
0.00450807
0.000313163
0.00428483
0.00028606
0.00408
0.000262533
0.00389127
0.000241962
0.00371671
0.000223857
0.00355469
0.000207828
0.00340384
0.000193559
0.00326296
0.000180795
0.00313105
0.000169326
0.00300724
0.000158977
0.00289075
0.000149604
0.00278092
0.000141085
0.00267717
0.000133319
0.00257896
0.000126216
0.00248584
0.000119705
0.00239739
0.000113719
0.00231325
0.000108205
0.00223309
0.000103115
0.00215661
9.84066e-05
0.00208353
9.40444e-05
0.00201361
8.9997e-05
0.00194663
8.62357e-05
0.00188238
8.27371e-05
0.00182068
7.94781e-05
0.00176135
7.64413e-05
0.00170422
7.36073e-05
0.00164917
7.09637e-05
0.00159604
6.84937e-05
0.00154471
6.61891e-05
0.00149506
6.40345e-05
0.00144698
6.20253e-05
0.00140037
6.01472e-05
0.00135513
5.83985e-05
0.00131116
5.67657e-05
0.00126837
5.52492e-05
0.00122669
5.38363e-05
0.00118603
5.25288e-05
0.00114632
5.13156e-05
0.00110748
5.01977e-05
0.00106945
4.91675e-05
0.00103215
4.82229e-05
0.000995536
4.73623e-05
0.000959533
4.65766e-05
0.00092408
4.58749e-05
0.00088913
4.52347e-05
0.000854614
4.46828e-05
0.000820497
4.41745e-05
0.000786706
4.37649e-05
0.000753221
4.33738e-05
0.000719957
4.31005e-05
0.000686919
4.28099e-05
0.000654003
4.26679e-05
0.000621248
4.24565e-05
0.000588521
4.24403e-05
0.000555909
4.22811e-05
0.000523238
4.23848e-05
0.00049066
4.22436e-05
0.000457941
4.24623e-05
0.000425326
4.22949e-05
0.000392494
4.26235e-05
0.000359814
4.2378e-05
0.000326848
4.28117e-05
0.000294124
4.24288e-05
0.000261053
4.29613e-05
0.000228357
4.23835e-05
0.00019526
4.30085e-05
0.000162706
4.21873e-05
0.000129704
4.28983e-05
9.74208e-05
4.18235e-05
6.46647e-05
4.25891e-05
3.27641e-05
4.13335e-05
6.58883e-07
4.18343e-05
-3.10662e-05
4.10067e-05
-6.30919e-05
4.16825e-05
-9.40779e-05
4.013e-05
-0.00012586
4.1396e-05
-0.000156453
3.96306e-05
-0.000188518
4.18153e-05
-0.000219287
3.9882e-05
-0.000252797
4.37961e-05
-0.000283783
4.02346e-05
-0.000317599
4.43063e-05
-0.00034395
3.40744e-05
-0.000387136
5.61896e-05
-0.000410456
3.11577e-05
-0.00045372
5.31907e-05
-0.000610662
0.000208645
-0.000637848
4.13355e-05
-0.000538337
-0.000142041
-0.00094338
0.000529677
-0.00132863
0.000540885
-0.000531975
-0.00105362
-7.76135e-05
-0.00064047
-0.00149045
0.00185436
-0.00281687
0.00180959
-0.0023001
-0.000650218
-0.000814011
-0.00196786
0.000488792
-0.00173154
0.00128683
-0.00106268
0.00159024
-0.000413736
0.00145504
0.000182731
-8.46419e-05
0.0414455
0.0160098
-0.0411395
0.0391579
0.015584
0.0352307
0.0131277
0.0309469
0.0103325
0.0270343
0.00792989
0.0237471
0.00607008
0.0210741
0.00470573
0.0189065
0.00372407
0.0171296
0.00301318
0.015651
0.00248882
0.0144017
0.00209325
0.0133315
0.00178799
0.0124035
0.00154744
0.0115903
0.00135437
0.010871
0.00119689
0.0102295
0.00106663
0.00965353
0.000957548
0.00913297
0.000865197
0.00865989
0.000786249
0.00822777
0.000718173
0.00783129
0.000659012
0.00746602
0.000607237
0.00712823
0.000561638
0.00681481
0.000521245
0.0065231
0.000485274
0.0062508
0.000453088
0.00599596
0.00042416
0.00575688
0.000398055
0.00553208
0.00037441
0.00532024
0.00035292
0.00512023
0.000333327
0.00493103
0.00031541
0.00475175
0.000298985
0.00458158
0.000283887
0.0044198
0.00026998
0.00426577
0.000257142
0.0041189
0.00024527
0.00397868
0.000234271
0.0038446
0.000224066
0.00371625
0.000214583
0.00359323
0.000205763
0.00347516
0.000197547
0.0033617
0.000189891
0.00325256
0.000182747
0.00314744
0.000176081
0.00304608
0.000169854
0.00294823
0.000164041
0.00285366
0.000158608
0.00276214
0.000153538
0.00267349
0.000148799
0.00258751
0.000144383
0.00250401
0.000140261
0.00242283
0.000136427
0.00234381
0.000132857
0.0022668
0.000129546
0.00219164
0.000126475
0.0021182
0.00012364
0.00204634
0.000121026
0.00197594
0.000118625
0.00190686
0.000116434
0.00183901
0.000114431
0.00177225
0.000112634
0.00170649
0.000110997
0.0016416
0.00010957
0.0015775
0.000108267
0.00151408
0.000107189
0.00145127
0.000106186
0.00138893
0.000105439
0.00132704
0.000104699
0.00126544
0.000104267
0.00120415
0.000103742
0.00114299
0.000103605
0.00108203
0.000103237
0.00102104
0.000103374
0.000960197
0.00010309
0.000899183
0.000103477
0.000838299
0.00010318
0.00077713
0.000103793
0.000716137
0.000103372
0.000654767
0.000104183
0.000593689
0.000103508
0.000532163
0.000104488
0.000471118
0.000103428
0.000409577
0.000104551
0.000348772
0.000102993
0.000287431
0.00010424
0.000227114
0.000102141
0.000166236
0.000103467
0.000106645
0.000100925
4.64978e-05
0.000101982
-1.22138e-05
9.97183e-05
-7.15862e-05
0.000101055
-0.000129399
9.79424e-05
-0.000188174
0.000100171
-0.000245183
9.66387e-05
-0.000304253
0.000100885
-0.000361405
9.70327e-05
-0.000422684
0.000105075
-0.000479837
9.73868e-05
-0.000541272
0.000105741
-0.000590616
8.3419e-05
-0.000669588
0.000135161
-0.000711697
7.32657e-05
-0.000800399
0.000141894
-0.00106855
0.000476795
-0.00110119
7.39696e-05
-0.000966183
-0.000277041
-0.00168207
0.00124557
-0.00224232
0.00110113
-0.000865407
-0.00243054
-0.000239194
-0.00126668
-0.00272236
0.00433752
-0.00480271
0.00388993
-0.00375558
-0.00169736
-0.00117416
-0.00454927
0.00105024
-0.00395593
0.0024025
-0.00241493
0.00288716
-0.000898394
0.00266259
0.000407298
-0.000238739
0.0459075
0.0147094
-0.044607
0.045992
0.0154995
0.0444152
0.0147045
0.041694
0.0130537
0.038453
0.0111709
0.0351507
0.00937238
0.0320545
0.00780193
0.0292788
0.0064998
0.0268424
0.00544957
0.0247194
0.00461185
0.0228686
0.00394401
0.0212483
0.00340834
0.0198212
0.00297454
0.0185562
0.0026194
0.0174276
0.00232542
0.0164148
0.00207948
0.0155006
0.00187171
0.0146712
0.00169457
0.0139152
0.00154229
0.013223
0.00141038
0.0125867
0.00129532
0.0119996
0.00119431
0.0114561
0.00110513
0.0109514
0.00102596
0.0104813
0.000955328
0.0100424
0.000892036
0.00963147
0.00083508
0.00924589
0.000783629
0.00888331
0.000736984
0.00854168
0.000694557
0.00821915
0.00065585
0.00791412
0.000620438
0.00762515
0.000587955
0.00735094
0.000558088
0.00709035
0.000530567
0.00684234
0.000505154
0.00660596
0.000481646
0.00638037
0.000459862
0.00616478
0.000439646
0.00595851
0.000420858
0.00576089
0.000403378
0.00557134
0.000387095
0.00538931
0.000371916
0.00521431
0.000357752
0.00504585
0.000344531
0.00488353
0.00033218
0.00472692
0.000320645
0.00457567
0.000309863
0.00442941
0.000299795
0.00428782
0.000290386
0.00415059
0.000281611
0.00401744
0.000273418
0.00388808
0.000265791
0.00376225
0.000258686
0.0036397
0.000252091
0.00352021
0.000245971
0.00340354
0.000240312
0.00328947
0.000235091
0.00317781
0.000230288
0.00306834
0.000225898
0.00296089
0.000221879
0.00285526
0.000218263
0.00275129
0.000214967
0.00264879
0.000212074
0.00254761
0.000209439
0.00244757
0.000207227
0.00234857
0.000205191
0.00225039
0.000203621
0.00215297
0.000202114
0.00205609
0.000201148
0.00195974
0.000200088
0.00186366
0.000199684
0.00176794
0.000198963
0.00167224
0.000199072
0.00157677
0.00019856
0.00148112
0.000199125
0.00138565
0.000198653
0.00128983
0.000199612
0.00119423
0.000198977
0.00109815
0.000200264
0.00100242
0.000199233
0.000906139
0.000200773
0.000810461
0.000199107
0.000714181
0.000200831
0.000618859
0.000198315
0.000522915
0.000200183
0.00042834
0.000196717
0.000333148
0.00019866
0.000239715
0.000194357
0.000145683
0.000196014
5.37117e-05
0.00019169
-3.88915e-05
0.000193658
-0.000129461
0.000188512
-0.000221004
0.000191714
-0.000310076
0.000185709
-0.000401763
0.000192571
-0.000490689
0.000185958
-0.000585154
0.00019954
-0.000673445
0.000185677
-0.000767669
0.000199964
-0.000845019
0.000160769
-0.000965585
0.000255726
-0.00103165
0.000139333
-0.00117671
0.000286949
-0.00156045
0.000860537
-0.00159451
0.000108025
-0.00144601
-0.000425538
-0.0024926
0.00229217
-0.00317234
0.00178087
-0.00118976
-0.00441313
-0.000498163
-0.00195826
-0.00411745
0.00795681
-0.00683131
0.00660378
-0.00509853
-0.00343015
-0.0013425
-0.0083053
0.00184283
-0.00714126
0.00376101
-0.00433311
0.00441747
-0.00155485
0.0041033
0.000721459
-0.000515199
0.0493739
0.0135146
-0.0481792
0.0503384
0.014535
0.050358
0.0146849
0.0493379
0.0140738
0.0474957
0.0130131
0.0451237
0.0117444
0.0424935
0.0104322
0.0398112
0.00918205
0.0372117
0.00804909
0.0347693
0.00705421
0.0325163
0.00619701
0.0304587
0.00546602
0.0285879
0.00484529
0.0268892
0.00431815
0.0253453
0.00386926
0.0239395
0.0034853
0.022656
0.00315516
0.0214809
0.00286969
0.0204018
0.00262145
0.0194078
0.00240437
0.0184895
0.00221354
0.0176389
0.00204491
0.0168489
0.0018952
0.0161131
0.00176168
0.0154264
0.00164209
0.0147839
0.00153455
0.0141814
0.0014375
0.0136155
0.0013496
0.0130827
0.00126974
0.0125803
0.00119696
0.0121057
0.00113045
0.0116566
0.00106951
0.011231
0.00101355
0.0108271
0.000962028
0.0104431
0.000914507
0.0100777
0.000870587
0.00972942
0.000829927
0.00939706
0.000792222
0.00907949
0.000757209
0.0087757
0.000724649
0.00848474
0.000694339
0.00820574
0.00066609
0.00793791
0.000639744
0.00768051
0.000615148
0.00743286
0.000592179
0.00719433
0.000570712
0.00696432
0.000550654
0.00674228
0.000531897
0.00652771
0.000514373
0.0063201
0.00049799
0.00611902
0.000482697
0.00592402
0.000468415
0.0057347
0.000455108
0.00555068
0.000442706
0.00537159
0.000431181
0.00519708
0.00042048
0.00502682
0.000410572
0.00486049
0.000401424
0.00469779
0.000392993
0.00453841
0.000385278
0.00438208
0.000378204
0.00422852
0.000371821
0.00407749
0.000365997
0.0039287
0.000360859
0.00378196
0.000356182
0.00363697
0.000352213
0.00349358
0.000348579
0.00335149
0.000345709
0.0032106
0.000343005
0.00307058
0.000341166
0.00293141
0.000339258
0.00279272
0.000338371
0.0026546
0.000337087
0.00251661
0.000337063
0.00237898
0.000336193
0.00224118
0.000336924
0.00210364
0.000336195
0.00196569
0.000337563
0.00182801
0.000336652
0.00168975
0.000338526
0.00155194
0.000337052
0.00141342
0.000339286
0.00127567
0.000336858
0.00113719
0.000339316
0.000999933
0.000335571
0.000861946
0.000338171
0.00072575
0.000332913
0.000588864
0.000335547
0.00045433
0.00032889
0.000319154
0.000331191
0.000186812
0.000324032
5.38159e-05
0.000326654
-7.63145e-05
0.000318642
-0.00020747
0.000322869
-0.00033522
0.000313458
-0.000466125
0.000323475
-0.000593086
0.000312919
-0.000727031
0.000333486
-0.000852176
0.000310822
-0.000985197
0.000332985
-0.00109629
0.000271861
-0.00126495
0.00042439
-0.00136112
0.000235495
-0.00157354
0.000499376
-0.00207515
0.00136215
-0.00210856
0.000141433
-0.00197007
-0.000564028
-0.00335683
0.00367893
-0.00409667
0.0025207
-0.00150282
-0.00700698
-0.000856547
-0.00260452
-0.00563868
0.0127389
-0.0088261
0.00979119
-0.00624989
-0.00600637
-0.00125728
-0.0132979
0.00291469
-0.0113132
0.0054038
-0.00682222
0.00622259
-0.00237363
0.00582381
0.00112023
-0.000958338
0.0528329
0.0126163
-0.0519345
0.0538617
0.0135062
0.0545463
0.0140003
0.0546165
0.0140035
0.0540197
0.0136099
0.0528251
0.012939
0.0511619
0.0120954
0.0491763
0.0111677
0.0470028
0.0102226
0.0447519
0.00930509
0.0425058
0.00844313
0.0403205
0.00765137
0.0382305
0.0069353
0.0362543
0.00629433
0.0343993
0.00572422
0.0326658
0.00521883
0.0310496
0.00477134
0.0295444
0.00437493
0.0281426
0.00402326
0.0268364
0.00371058
0.0256181
0.00343183
0.0244804
0.00318261
0.0234165
0.00295911
0.0224201
0.00275806
0.0214855
0.00257667
0.0206075
0.00241253
0.0197814
0.00226356
0.019003
0.002128
0.0182684
0.00200432
0.0175742
0.00189119
0.0169172
0.00178747
0.0162945
0.00169217
0.0157037
0.00160442
0.0151422
0.00152345
0.0146081
0.00144862
0.0140994
0.00137934
0.0136142
0.00131509
0.013151
0.00125543
0.0127082
0.00119995
0.0122846
0.00114829
0.0118788
0.00110016
0.0114896
0.00105525
0.011116
0.00101332
0.010757
0.000974145
0.0104117
0.000937531
0.0100791
0.000903284
0.0097585
0.000871259
0.00944911
0.00084129
0.00915021
0.000813269
0.00886114
0.000787054
0.00858128
0.000762563
0.00831002
0.000739675
0.0080468
0.000718328
0.00779109
0.00069842
0.00754237
0.000679899
0.00730016
0.000662687
0.007064
0.000646731
0.00683344
0.000631983
0.00660807
0.000618371
0.00638745
0.000605895
0.00617121
0.000594439
0.00595896
0.000584075
0.00575035
0.000574607
0.00554499
0.000566217
0.00534259
0.000558577
0.00514277
0.000552037
0.00494528
0.000546067
0.00474972
0.000541266
0.00455593
0.000536793
0.00436347
0.000533622
0.00417229
0.000530442
0.00398189
0.000528771
0.00379235
0.00052663
0.0036031
0.000526312
0.0034144
0.000524893
0.00322557
0.000525752
0.00303712
0.000524646
0.0028482
0.000526481
0.00265966
0.000525201
0.00247039
0.00052779
0.00228168
0.000525761
0.00209212
0.000528852
0.0019035
0.000525474
0.00171399
0.00052883
0.00152603
0.000523535
0.0013372
0.000527001
0.00115066
0.000519449
0.000963352
0.000522857
0.00077911
0.000513133
0.000594204
0.000516098
0.000413065
0.000505171
0.000231201
0.000508517
5.34657e-05
0.000496377
-0.000125305
0.000501639
-0.00029959
0.000487742
-0.000477423
0.000501308
-0.000649741
0.000485236
-0.000830435
0.000514179
-0.000999074
0.00047946
-0.0011778
0.000511715
-0.00132922
0.000423281
-0.00155311
0.000648275
-0.00168633
0.00036871
-0.00197682
0.00078987
-0.00259631
0.00198164
-0.00262938
0.000174495
-0.00252406
-0.000669342
-0.00424839
0.00540327
-0.00498867
0.00326096
-0.00179901
-0.0101966
-0.00130492
-0.00309858
-0.00722826
0.0186623
-0.0106913
0.0132542
-0.00711955
-0.00957812
-0.000850659
-0.0195668
0.00432181
-0.0164857
0.00738105
-0.00988145
0.00835396
-0.00334654
0.007882
0.00159219
-0.00161873
0.0565538
0.0119291
-0.0558666
0.0574077
0.0126523
0.0582048
0.0132032
0.0587323
0.013476
0.0588682
0.013474
0.0585667
0.0132405
0.0578371
0.0128251
0.0567271
0.0122776
0.0553053
0.0116444
0.0536469
0.0109635
0.0518252
0.0102649
0.0499055
0.00957112
0.0479422
0.00889854
0.0459784
0.00825811
0.0440461
0.00765654
0.0421677
0.00709723
0.0403579
0.00658114
0.0386254
0.00610748
0.0369743
0.00567431
0.0354058
0.00527907
0.0339188
0.00491881
0.0325109
0.00459053
0.0311787
0.00429129
0.0299185
0.00401829
0.0287262
0.00376896
0.0275978
0.00354092
0.0265293
0.00333205
0.0255169
0.00314042
0.0245569
0.00296433
0.0236459
0.00280225
0.0227805
0.00265282
0.0219578
0.00251483
0.021175
0.00238721
0.0204295
0.00226901
0.0197187
0.00215937
0.0190405
0.00205753
0.0183928
0.00196284
0.0177736
0.00187466
0.017181
0.00179249
0.0166135
0.00171581
0.0160694
0.00164422
0.0155474
0.00157731
0.015046
0.00151474
0.0145639
0.00145619
0.0141001
0.00140139
0.0136533
0.00135006
0.0132225
0.001302
0.0128068
0.00125698
0.0124053
0.00121484
0.012017
0.00117536
0.0116411
0.00113845
0.0112768
0.00110391
0.0109235
0.00107166
0.0105804
0.00104155
0.0102468
0.00101351
0.00992204
0.000987419
0.00960557
0.000963197
0.00929677
0.000940783
0.00899508
0.000920063
0.00869993
0.000901042
0.00841082
0.000883546
0.00812722
0.000867682
0.00784866
0.000853165
0.00757462
0.000840252
0.00730471
0.000828482
0.00703841
0.000818338
0.00677539
0.000809084
0.00651511
0.000801543
0.00625735
0.000794558
0.00600152
0.000789453
0.00574751
0.000784446
0.0054947
0.000781588
0.00524313
0.000778195
0.00499209
0.000777358
0.00474185
0.000775129
0.00449156
0.000776044
0.00424181
0.000774393
0.00399155
0.00077675
0.00374177
0.000774979
0.00349113
0.000778432
0.00324118
0.00077571
0.00299017
0.00077986
0.00274034
0.000775309
0.0024894
0.000779774
0.00224038
0.00077255
0.00199032
0.000777062
0.00174315
0.000766617
0.00149511
0.000770906
0.00125099
0.000757251
0.00100619
0.000760896
0.000766306
0.000745054
0.000525729
0.000749094
0.000290731
0.000731375
5.49559e-05
0.000737414
-0.000175152
0.000717849
-0.000408918
0.000735074
-0.000635142
0.000711459
-0.000870991
0.000750028
-0.00109081
0.000699274
-0.00132319
0.000744099
-0.0015224
0.000622486
-0.0018093
0.000935179
-0.00198719
0.000546605
-0.00236573
0.00116841
-0.00310091
0.00271682
-0.00313635
0.000209927
-0.00308475
-0.000720931
-0.00513126
0.00744979
-0.0058166
0.00394629
-0.00206654
-0.0139467
-0.00181732
-0.00334777
-0.00880529
0.0256503
-0.012313
0.0167619
-0.00760544
-0.0142857
-4.57235e-05
-0.0271265
0.00613087
-0.0226623
0.00975489
-0.0135055
0.0108758
-0.0044675
0.0103487
0.00211935
-0.00255268
0.0605599
0.0113657
-0.0599966
0.0612446
0.0119676
0.0619597
0.0124881
0.0625824
0.0128533
0.0630151
0.0130413
0.063194
0.0130616
0.0630836
0.0129355
0.0626734
0.0126878
0.0619736
0.0123442
0.0610088
0.0119283
0.0598134
0.0114602
0.0584271
0.0109575
0.0568909
0.0104347
0.0552449
0.00990411
0.0535259
0.00937554
0.0517663
0.00885687
0.0499933
0.00835414
0.048229
0.00787176
0.0464906
0.00741269
0.044791
0.00697868
0.0431393
0.0065705
0.0415417
0.00618815
0.0400019
0.00583107
0.0385219
0.00549831
0.0371022
0.00518866
0.0357423
0.00490077
0.0344411
0.00463323
0.0331969
0.00438464
0.0320076
0.00415361
0.030871
0.00393882
0.0297848
0.00373902
0.0287466
0.00355306
0.027754
0.00337985
0.0268046
0.0032184
0.0258961
0.00306779
0.0250265
0.00292718
0.0241935
0.00279582
0.0233952
0.002673
0.0226295
0.0025581
0.0218948
0.00245052
0.0211893
0.00234976
0.0205113
0.00225531
0.0198593
0.00216676
0.0192317
0.0020837
0.0186273
0.00200578
0.0180447
0.00193266
0.0174827
0.00186405
0.01694
0.00179966
0.0164156
0.00173928
0.0159083
0.00168264
0.0154172
0.00162958
0.0149412
0.00157987
0.0144795
0.00153338
0.0140311
0.00148992
0.0135953
0.00144937
0.0131711
0.0014116
0.0127578
0.00137647
0.0123547
0.00134392
0.011961
0.00131377
0.011576
0.00128605
0.011199
0.00126051
0.0108294
0.00123729
0.0104665
0.00121601
0.0101098
0.00119701
0.00975859
0.00117967
0.00941228
0.00116464
0.00907044
0.00115093
0.00873235
0.00113963
0.0083977
0.0011292
0.00806575
0.00112141
0.00773633
0.00111387
0.00740862
0.0011093
0.00708266
0.00110415
0.00675753
0.00110249
0.00643354
0.00109912
0.00610961
0.00109998
0.00578643
0.00109757
0.00546268
0.00110051
0.00513957
0.00109809
0.00481541
0.00110259
0.0044921
0.00109902
0.00416748
0.00110448
0.00384428
0.00109851
0.0035197
0.00110436
0.00319748
0.00109477
0.00287397
0.00110057
0.00255405
0.00108653
0.00223311
0.00109185
0.00191713
0.00107324
0.00160045
0.00107757
0.00129008
0.00105542
0.000979119
0.00106005
0.000675514
0.00103498
0.000371039
0.00104189
7.48244e-05
0.00101406
-0.000225294
0.00103519
-0.000515494
0.00100166
-0.000816205
0.00105074
-0.00109611
0.000979181
-0.00139123
0.00103922
-0.00164662
0.000877879
-0.00200495
0.0012935
-0.00223556
0.000777216
-0.00271093
0.00164377
-0.0035575
0.0035634
-0.00360024
0.000252657
-0.00361775
-0.000703405
-0.0059583
0.00979035
-0.00654188
0.00452985
-0.00228305
-0.0182056
-0.00234668
-0.0032841
-0.0102635
0.033567
-0.0135603
0.0200587
-0.00759511
-0.0202509
0.00125886
-0.0359805
0.00842186
-0.0298252
0.0126025
-0.0176861
0.0138684
-0.00573337
0.0133105
0.00267721
-0.00382087
0.064845
0.010881
-0.0643603
0.0654107
0.0114019
0.0660187
0.0118801
0.066604
0.012268
0.0671039
0.0125414
0.06747
0.0126955
0.0676668
0.0127387
0.0676704
0.0126841
0.0674678
0.0125468
0.0670548
0.0123413
0.0664351
0.01208
0.0656191
0.0117735
0.0646226
0.0114312
0.0634656
0.0110612
0.0621705
0.0106706
0.0607615
0.0102659
0.0592628
0.00985283
0.0576978
0.00943676
0.0560882
0.00902231
0.0544534
0.00861351
0.0528102
0.00821372
0.0511727
0.00782562
0.0495525
0.00745124
0.0479588
0.007092
0.0463987
0.00674883
0.0448772
0.00642219
0.0433983
0.00611219
0.0419642
0.00581868
0.0405765
0.0055413
0.0392358
0.00527951
0.0379421
0.00503271
0.036695
0.00480022
0.0354935
0.00458132
0.0343366
0.00437529
0.033223
0.00418142
0.0321512
0.00399898
0.0311197
0.00382733
0.0301269
0.0036658
0.0291712
0.00351379
0.028251
0.00337072
0.0273647
0.00323605
0.0265107
0.00310927
0.0256875
0.00298992
0.0248937
0.00287756
0.0241277
0.00277178
0.0233881
0.00267221
0.0226737
0.00257851
0.021983
0.00249033
0.0213148
0.00240743
0.020668
0.00232949
0.0200413
0.00225629
0.0194336
0.00218758
0.0188438
0.00212318
0.0182708
0.00206287
0.0177137
0.00200648
0.0171715
0.00195386
0.0166431
0.00190482
0.0161277
0.0018593
0.0156244
0.00181706
0.0151323
0.00177814
0.0146506
0.00174221
0.0141785
0.00170947
0.0137151
0.0016794
0.0132596
0.00165247
0.0128114
0.00162785
0.0123697
0.0016064
0.0119338
0.00158682
0.0115029
0.00157054
0.0110765
0.00155554
0.0106538
0.00154413
0.0102345
0.00153319
0.00981749
0.00152628
0.00940288
0.00151875
0.00898947
0.00151591
0.00857762
0.00151096
0.00816594
0.00151166
0.0077553
0.00150821
0.00734399
0.00151182
0.0069335
0.00150858
0.00652172
0.00151437
0.00611097
0.00150977
0.00569856
0.0015169
0.00528784
0.00150922
0.00487536
0.00151684
0.00446572
0.00150441
0.00405446
0.00151183
0.00364759
0.0014934
0.00323948
0.00149997
0.00283754
0.00147517
0.00243488
0.00148024
0.00204021
0.00145009
0.00164511
0.00145515
0.00125956
0.00142053
0.000873383
0.00142806
0.000498305
0.00138914
0.000119583
0.00141391
-0.000246367
0.00136761
-0.000623091
0.00142746
-0.000973472
0.00132956
-0.00134164
0.00140739
-0.00166261
0.00119885
-0.00210133
0.00173223
-0.00239275
0.00106863
-0.0029722
0.00222322
-0.00392394
0.00451514
-0.0039803
0.000309005
-0.00407478
-0.000608928
-0.00666952
0.0123851
-0.00711614
0.00497644
-0.00241012
-0.0229116
-0.00282055
-0.00287364
-0.0114699
0.0422164
-0.0142871
0.0228759
-0.00696547
-0.0275726
0.00316146
-0.0461074
0.0112919
-0.0379556
0.01602
-0.0224143
0.017431
-0.00714435
0.0168727
0.00323553
-0.00548663
0.0694179
0.0104534
-0.0689902
0.0699016
0.0109181
0.0704225
0.0113592
0.0709448
0.0117458
0.0714289
0.0120573
0.0718408
0.0122835
0.0721548
0.0124247
0.0723514
0.0124876
0.0724165
0.0124817
0.0723401
0.0124176
0.0721154
0.0123047
0.0717386
0.0121502
0.0712091
0.0119607
0.0705292
0.0117411
0.0697044
0.0114954
0.0687431
0.0112272
0.0676564
0.0109395
0.0664578
0.0106354
0.065162
0.0103181
0.0637848
0.00999063
0.0623424
0.0096562
0.0608501
0.00931787
0.0593228
0.00897857
0.0577738
0.00864097
0.0562152
0.00830744
0.0546574
0.00798001
0.0531092
0.00766034
0.0515781
0.00734977
0.0500701
0.0070493
0.04859
0.00675965
0.0471414
0.00648128
0.0457272
0.00621445
0.0443493
0.00595925
0.0430089
0.00571561
0.041707
0.00548337
0.0404437
0.00526229
0.0392189
0.00505206
0.0380324
0.00485232
0.0368835
0.00466271
0.0357714
0.00448283
0.0346951
0.00431229
0.0336537
0.00415067
0.032646
0.00399761
0.0316709
0.0038527
0.0307271
0.0037156
0.0298134
0.00358593
0.0289285
0.00346338
0.0280712
0.0033476
0.0272403
0.00323833
0.0264345
0.00313525
0.0256527
0.00303814
0.0248936
0.0029467
0.024156
0.00286075
0.0234388
0.00278004
0.0227409
0.00270438
0.0220612
0.0026336
0.0213985
0.00256749
0.0207519
0.00250597
0.0201202
0.00244875
0.0195024
0.0023959
0.0188976
0.002347
0.0183048
0.00230233
0.017723
0.00226121
0.0171512
0.00222427
0.0165886
0.00219043
0.0160342
0.00216082
0.0154872
0.00213375
0.0149467
0.00211109
0.014412
0.00209022
0.013882
0.00207412
0.0133564
0.0020588
0.0128339
0.0020488
0.0123144
0.00203819
0.0117966
0.00203374
0.0112808
0.00202675
0.0107653
0.00202715
0.0102511
0.00202239
0.00973617
0.00202679
0.0092222
0.00202256
0.00870659
0.00202998
0.00819217
0.00202419
0.0076756
0.00203346
0.00716099
0.00202383
0.00664409
0.00203374
0.00613054
0.00201796
0.00561489
0.00202749
0.00510451
0.00200377
0.00459256
0.00201192
0.00408819
0.00197955
0.00358301
0.00198542
0.00308783
0.00194528
0.00259245
0.00195053
0.00210929
0.00190369
0.00162596
0.00191139
0.00115718
0.00185792
0.000684697
0.00188639
0.000230225
0.00182208
-0.000235135
0.00189282
-0.000668335
0.00176276
-0.00112119
0.00186024
-0.0015182
0.00159586
-0.00204678
0.00226081
-0.00240666
0.00142851
-0.0030957
0.00291226
-0.00414455
0.00556399
-0.00422088
0.000385332
-0.00439077
-0.000438999
-0.0071898
0.0151841
-0.00747657
0.00526319
-0.00238698
-0.0280012
-0.00313758
-0.002123
-0.012265
0.0513438
-0.0143332
0.0249441
-0.005582
-0.0363239
0.0057908
-0.0574802
0.014859
-0.0470238
0.0201264
-0.0276817
0.0216862
-0.00870409
0.0211622
0.00375944
-0.00761361
0.0742982
0.0100703
-0.0739151
0.0747228
0.0104936
0.0751777
0.0109043
0.0756422
0.0112812
0.0760906
0.0116089
0.0764982
0.011876
0.0768452
0.0120777
0.077117
0.0122158
0.0773032
0.0122955
0.0773966
0.0123243
0.0773914
0.0123099
0.0772823
0.0122593
0.0770653
0.0121777
0.0767363
0.01207
0.0762924
0.0119394
0.0757316
0.011788
0.0750536
0.0116174
0.0742603
0.0114287
0.0733555
0.0112229
0.0723452
0.0110009
0.0712373
0.0107641
0.0700413
0.0105139
0.0687677
0.0102521
0.0674279
0.00998075
0.0660335
0.00970186
0.0645959
0.00941764
0.063126
0.0091302
0.0616342
0.0088416
0.0601297
0.00855372
0.0586211
0.00826824
0.0571158
0.00798665
0.05562
0.00771023
0.0541392
0.00744001
0.052678
0.00717684
0.05124
0.00692139
0.0498281
0.00667413
0.0484448
0.00643542
0.0470916
0.00620548
0.0457699
0.00598444
0.0444804
0.00577232
0.0432236
0.00556908
0.0419996
0.00537464
0.0408084
0.00518886
0.0396495
0.00501156
0.0385225
0.00484256
0.0374268
0.00468164
0.0363616
0.00452861
0.035326
0.0043832
0.0343191
0.00424523
0.0333399
0.00411444
0.0323874
0.00399065
0.0314605
0.0038736
0.0305581
0.00376313
0.0296791
0.00365901
0.0288225
0.00356106
0.0279869
0.00346913
0.0271714
0.00338299
0.0263748
0.00330259
0.025596
0.00322758
0.0248338
0.00315812
0.0240871
0.00309366
0.0233548
0.00303461
0.0226359
0.00298012
0.0219292
0.00293101
0.0212337
0.00288592
0.0205482
0.00284631
0.0198719
0.00281004
0.0192035
0.0027795
0.0185423
0.00275138
0.017887
0.00272946
0.0172371
0.00270869
0.0165911
0.00269484
0.0159489
0.00268037
0.0153087
0.00267392
0.014671
0.00266441
0.0140337
0.00266445
0.013398
0.00265812
0.0127612
0.00266357
0.0121256
0.00265822
0.0114878
0.00266779
0.0108512
0.00266072
0.0102119
0.00267282
0.00957467
0.00266103
0.00893442
0.002674
0.008298
0.00265438
0.00765876
0.00266673
0.00702575
0.00263678
0.00639065
0.00264702
0.00576469
0.00260551
0.00513776
0.00261235
0.00452315
0.00255988
0.00390862
0.00256506
0.00330951
0.0025028
0.00271093
0.00250997
0.00213112
0.00243773
0.00154831
0.00246919
0.000989415
0.00238098
0.000419675
0.00246256
-0.000109827
0.00229226
-0.000659996
0.0024104
-0.00114479
0.00208066
-0.00177318
0.0028892
-0.00220814
0.00186347
-0.0030106
0.00371473
-0.00414646
0.00669984
-0.00424743
0.0004863
-0.00448062
-0.000205819
-0.00742574
0.0181293
-0.00753963
0.00537705
-0.0021235