/*--------------------------------*- C++ -*----------------------------------*\
| =========                 |                                                 |
| \\      /  F ield         | OpenFOAM: The Open Source CFD Toolbox           |
|  \\    /   O peration     | Version:  2412                                  |
|   \\  /    A nd           | Website:  www.openfoam.com                      |
|    \\/     M anipulation  |                                                 |
\*---------------------------------------------------------------------------*/
FoamFile
{
    version     2.0;
    format      ascii;
    arch        "LSB;label=32;scalar=64";
    class       surfaceScalarField;
    location    "1.695";
    object      phi;
}
// * * * * * * * * * * * * * * * * * * * * * * * * * * * * * * * * * * * * * //

dimensions      [0 3 -1 0 0 0 0];

oriented        oriented;

internalField   nonuniform List<scalar> 
24930
(
0.0179631
0.0127563
-0.0307289
0.0105994
0.00736368
0.00694911
0.00365032
0.00517319
0.00177592
0.00420119
0.000972005
0.00357831
0.000622882
0.00313241
0.000445908
0.00279292
0.000339493
0.00252375
0.000269165
0.00230385
0.000219902
0.00212006
0.000183794
0.00196364
0.000156416
0.00182855
0.00013509
0.00171044
0.000118109
0.0016061
0.000104339
0.0015131
9.2997e-05
0.00142956
8.35274e-05
0.00135403
7.5528e-05
0.00128533
6.87004e-05
0.0012225
6.28194e-05
0.00116478
5.77126e-05
0.00111153
5.32455e-05
0.00106221
4.93123e-05
0.00101637
4.58286e-05
0.000973635
4.27263e-05
0.000933675
3.995e-05
0.000896211
3.74544e-05
0.000860999
3.52018e-05
0.000827827
3.31612e-05
0.00079651
3.13062e-05
0.000766885
2.96149e-05
0.000738807
2.80684e-05
0.000712147
2.66506e-05
0.00068679
2.53476e-05
0.000662634
2.41478e-05
0.000639587
2.30404e-05
0.000617564
2.20171e-05
0.00059649
2.10692e-05
0.000576295
2.01911e-05
0.000556917
1.93754e-05
0.000538298
1.86186e-05
0.000520384
1.79137e-05
0.000503126
1.72594e-05
0.00048648
1.66486e-05
0.000470402
1.60821e-05
0.000454855
1.55521e-05
0.000439798
1.50619e-05
0.000425202
1.46021e-05
0.000411029
1.41793e-05
0.000397255
1.37811e-05
0.000383843
1.34185e-05
0.000370775
1.3075e-05
0.000358014
1.2767e-05
0.000345548
1.24727e-05
0.000333339
1.22153e-05
0.000321379
1.19656e-05
0.00030963
1.17555e-05
0.000298088
1.15466e-05
0.000286712
1.13814e-05
0.000275506
1.12097e-05
0.000264423
1.10875e-05
0.000253476
1.095e-05
0.00024261
1.08694e-05
0.00023185
1.07628e-05
0.000221129
1.07225e-05
0.000210488
1.06431e-05
0.000199848
1.06415e-05
0.000189263
1.05856e-05
0.000178642
1.06209e-05
0.000168059
1.05833e-05
0.000157408
1.06513e-05
0.000146784
1.06239e-05
0.000136067
1.07178e-05
0.000125377
1.06905e-05
0.000114577
1.08016e-05
0.000103816
1.07621e-05
9.29383e-05
1.08789e-05
8.21273e-05
1.0812e-05
7.12082e-05
1.09198e-05
6.04004e-05
1.08083e-05
4.95103e-05
1.08907e-05
3.87954e-05
1.07157e-05
2.80463e-05
1.07496e-05
1.75534e-05
1.0493e-05
7.11128e-06
1.04416e-05
-2.99911e-06
1.01094e-05
-1.29195e-05
9.91916e-06
-2.24302e-05
9.51009e-06
-3.16001e-05
9.16987e-06
-4.01248e-05
8.52564e-06
-4.87673e-05
8.64395e-06
-5.51116e-05
6.34428e-06
-6.48083e-05
9.69757e-06
-6.6422e-05
1.61317e-06
-8.00326e-05
1.36155e-05
-7.86654e-05
-1.36212e-06
-8.17712e-05
3.10509e-06
-9.92459e-05
1.74594e-05
-7.61225e-05
-2.31444e-05
-0.000141009
6.48816e-05
-5.11995e-05
-8.98507e-05
-0.000186064
0.000134879
-8.00391e-05
-0.000105997
-6.90641e-05
-1.10299e-05
-0.000341162
0.000272182
7.94975e-05
-0.000420719
-0.000506278
0.000585812
-0.000138412
-0.000367832
-0.000190227
5.17072e-05
-0.000549559
0.000359412
0.000326971
-0.000876656
-0.00136846
0.0016955
-0.000547129
-0.000821189
0.000185097
-0.000732457
-0.00071538
0.000900631
0.000197752
-0.00091306
-0.000510739
0.000708418
-0.000142845
-0.000367935
0.00072777
-0.000870641
0.000283767
0.0336718
0.0163261
-0.0372415
0.0277337
0.0133018
0.0221806
0.00920342
0.0179065
0.00605002
0.0148607
0.00401789
0.0127004
0.00278313
0.0111135
0.0020328
0.00989665
0.00155639
0.00892955
0.00123627
0.00813931
0.00101015
0.00747917
0.000843933
0.00691784
0.000717748
0.00643353
0.000619394
0.00601057
0.000541059
0.00563738
0.000477531
0.00530516
0.000425207
0.00500715
0.000381533
0.00473801
0.000344653
0.00449351
0.000313188
0.00427022
0.000286099
0.00406533
0.000262588
0.00387653
0.000242034
0.00370188
0.000223946
0.00353975
0.000207934
0.00338878
0.000193684
0.00324777
0.000180938
0.00311572
0.000169487
0.00299174
0.000159158
0.00287508
0.000149805
0.00276505
0.000141308
0.00266108
0.000133564
0.00256265
0.000126486
0.00246928
0.00012
0.00238057
0.000114041
0.00229614
0.000108556
0.00221567
0.000103496
0.00213886
9.88199e-05
0.00206543
9.44911e-05
0.00199513
9.04804e-05
0.00192774
8.67567e-05
0.00186306
8.33e-05
0.00180089
8.00831e-05
0.00174106
7.70939e-05
0.00168341
7.43068e-05
0.00162778
7.17174e-05
0.00157404
6.92993e-05
0.00152206
6.70564e-05
0.00147171
6.49589e-05
0.00142289
6.30206e-05
0.00137548
6.1205e-05
0.00132937
5.95379e-05
0.00128449
5.7973e-05
0.00124072
5.65509e-05
0.00119799
5.52117e-05
0.0011562
5.40145e-05
0.0011153
5.28809e-05
0.00107518
5.18931e-05
0.00103578
5.09482e-05
0.00099702
5.01569e-05
0.000958853
4.93858e-05
0.000921168
4.87811e-05
0.000883956
4.81709e-05
0.000847087
4.77448e-05
0.000810574
4.72825e-05
0.000774275
4.70272e-05
0.000738224
4.66987e-05
0.000702263
4.66059e-05
0.000666454
4.63969e-05
0.000630621
4.64564e-05
0.000594859
4.63465e-05
0.000558973
4.65384e-05
0.000523102
4.64953e-05
0.00048703
4.67894e-05
0.000450948
4.67726e-05
0.000414619
4.7131e-05
0.00037829
4.70916e-05
0.000341707
4.74633e-05
0.000305184
4.73361e-05
0.00026845
4.7656e-05
0.000231893
4.73672e-05
0.000195224
4.75608e-05
0.000158914
4.70271e-05
0.000122669
4.69955e-05
8.70229e-05
4.61407e-05
5.17424e-05
4.57231e-05
1.72816e-05
4.45709e-05
-1.62304e-05
4.34315e-05
-4.89821e-05
4.22616e-05
-7.98496e-05
4.00367e-05
-0.000109863
3.85383e-05
-0.00013828
3.70595e-05
-0.000162203
3.02669e-05
-0.000193222
4.07157e-05
-0.000201381
9.77245e-06
-0.000248735
6.09686e-05
-0.000237607
-1.24875e-05
-0.00026559
3.10909e-05
-0.000298428
5.03017e-05
-0.000256645
-6.49233e-05
-0.000421832
0.000230061
-0.000179462
-0.000332212
-0.000604932
0.000560324
-0.000229414
-0.000481531
-0.000288212
4.77969e-05
-0.00094348
0.000927427
0.00019556
-0.00155976
-0.00154552
0.00232688
-0.000403511
-0.00150987
-0.000771408
0.000419622
-0.00148012
0.00106808
0.000911019
-0.00326779
-0.00404956
0.00665604
-0.00149186
-0.00337901
0.000202004
-0.0024262
-0.00210199
0.00320454
0.000693649
-0.00370872
-0.00154165
0.00294374
-0.000304466
-0.00160508
0.0022387
-0.0034138
0.00120061
0.041441
0.0160245
-0.0411394
0.0391483
0.0155944
0.0352167
0.0131351
0.0309294
0.0103373
0.0270144
0.00793293
0.0237256
0.00607194
0.0210515
0.00470686
0.0188832
0.00372475
0.0171058
0.00301361
0.0156269
0.00248909
0.0143774
0.00209343
0.013307
0.00178812
0.0123789
0.00154754
0.0115655
0.00135446
0.010846
0.00119698
0.0102045
0.00106673
0.00962832
0.000957663
0.00910764
0.00086533
0.00863441
0.000786405
0.00820214
0.000718355
0.00780549
0.000659223
0.00744003
0.000607481
0.00710204
0.000561917
0.0067884
0.000521561
0.00649644
0.00048563
0.00622387
0.000453483
0.00596874
0.000424597
0.00572934
0.000398536
0.00550419
0.000374938
0.00529197
0.000353496
0.00509156
0.000333956
0.00490193
0.000316096
0.00472218
0.00029973
0.00455151
0.000284696
0.00438919
0.000270856
0.00423458
0.000258088
0.0040871
0.000246292
0.00394621
0.000235371
0.00381143
0.000225252
0.00368232
0.000215858
0.00355849
0.000207135
0.00343955
0.00019902
0.00332518
0.000191475
0.00321505
0.000184443
0.00310887
0.000177903
0.00300638
0.000171801
0.00290731
0.000166133
0.00281145
0.000160839
0.00271855
0.000155934
0.00262842
0.00015135
0.00254085
0.000147125
0.00245567
0.000143173
0.00237267
0.000139559
0.00229172
0.000136176
0.00221263
0.000133121
0.00213527
0.000130258
0.00205945
0.000127721
0.00198508
0.000125336
0.00191196
0.000123284
0.00184002
0.000121339
0.00176907
0.000119745
0.00169903
0.00011821
0.00162974
0.000117052
0.00156113
0.000115897
0.00149301
0.000115153
0.00142536
0.000114346
0.00135798
0.000113995
0.00129087
0.000113503
0.00122382
0.000113517
0.00115687
0.000113294
0.00108978
0.000113625
0.00102268
0.000113596
0.000955303
0.000114169
0.000887835
0.000114241
0.000820002
0.000114964
0.000752072
0.000115022
0.000683765
0.000115772
0.000615445
0.000115659
0.000546825
0.000116277
0.000478379
0.000115815
0.00040982
0.000116122
0.000341743
0.000115106
0.000273877
0.000114863
0.000206919
0.0001131
0.00014071
0.000111932
7.58155e-05
0.000109466
1.27725e-05
0.000106474
-4.9126e-05
0.000104159
-0.000107249
9.81585e-05
-0.000164635
9.59233e-05
-0.000217742
9.01652e-05
-0.000264973
7.74981e-05
-0.000321805
9.75466e-05
-0.000340938
2.89071e-05
-0.00042868
0.000148711
-0.000407153
-3.40109e-05
-0.000470508
9.44473e-05
-0.000515355
9.51537e-05
-0.000464527
-0.000115752
-0.00072541
0.000490938
-0.000336841
-0.000720792
-0.00107567
0.00129914
-0.000401391
-0.00115584
-0.000583789
0.00023019
-0.0015516
0.00189524
0.000301017
-0.00341242
-0.00268028
0.00530819
-0.000707635
-0.00348252
-0.00156141
0.00127342
-0.00239101
0.00189769
0.0015454
-0.00720425
-0.00683596
0.0150374
-0.00236706
-0.00784793
-0.00010453
-0.00468879
-0.00356084
0.00666087
0.00138654
-0.0086561
-0.00265712
0.0069874
-0.00032477
-0.00393742
0.00390122
-0.0076398
0.00289853
0.0459028
0.0147265
-0.0446049
0.0459834
0.0155138
0.0444022
0.0147162
0.0416766
0.013063
0.0384316
0.011178
0.0351259
0.00937761
0.0320271
0.00780572
0.0292493
0.00650253
0.0268113
0.00545155
0.0246871
0.00461332
0.0228354
0.00394512
0.0212143
0.00340921
0.0197866
0.00297526
0.0185211
0.00262001
0.0173921
0.00232596
0.0163788
0.00207999
0.0154643
0.0018722
0.0146345
0.00169506
0.0138781
0.0015428
0.0131856
0.00141091
0.0125489
0.00129589
0.0119614
0.00119492
0.0114175
0.00110579
0.0109124
0.00102668
0.0104419
0.000956113
0.0100025
0.000892888
0.00959104
0.000836004
0.00920493
0.000784628
0.00884178
0.000738065
0.00849953
0.000695726
0.00817635
0.000657114
0.00787062
0.000621804
0.0075809
0.00058943
0.00730589
0.000559679
0.00704445
0.000532281
0.00679553
0.000506998
0.00655818
0.000483629
0.00633154
0.000461991
0.00611485
0.000441934
0.00590739
0.000423312
0.00570851
0.000406014
0.00551762
0.000389918
0.00533415
0.000374947
0.0051576
0.000360993
0.00498751
0.000348009
0.00482342
0.000335895
0.00466494
0.00032463
0.00451168
0.000314114
0.00436327
0.000304356
0.00421939
0.000295245
0.00407971
0.000286825
0.00394394
0.000278964
0.00381176
0.000271747
0.00368294
0.000265013
0.00355718
0.000258894
0.00343427
0.000253187
0.00331392
0.000248083
0.00319595
0.000243322
0.00308008
0.000239165
0.00296615
0.000235279
0.00285389
0.000232012
0.00274317
0.000228942
0.00263371
0.000226522
0.0025254
0.00022421
0.00241797
0.000222593
0.00231134
0.000220982
0.00220521
0.000220123
0.00209957
0.000219153
0.00199409
0.000219
0.0018888
0.000218583
0.00178338
0.00021904
0.00167794
0.000219041
0.00157214
0.000219969
0.00146616
0.000220215
0.00135969
0.000221441
0.001253
0.000221714
0.00114577
0.000222999
0.00103842
0.000223007
0.000930655
0.000224049
0.00082302
0.000223452
0.00071524
0.000223904
0.000608043
0.000222305
0.000501193
0.000221714
0.000395563
0.000218732
0.000291103
0.000216393
0.000188488
0.000212081
8.86368e-05
0.000206325
-9.46481e-06
0.00020226
-0.000101703
0.000190396
-0.000193361
0.00018758
-0.000277598
0.000174401
-0.000354626
0.000154526
-0.000443313
0.000186234
-0.000479092
6.46874e-05
-0.000613514
0.000283134
-0.000584319
-6.32048e-05
-0.000691478
0.000201607
-0.00074952
0.000153198
-0.000695988
-0.000169286
-0.00105259
0.000847524
-0.000522903
-0.00125048
-0.00159143
0.00236765
-0.000602538
-0.00214474
-0.000957045
0.000584695
-0.00216939
0.00310758
0.00039315
-0.00597497
-0.00390246
0.00960381
-0.00106264
-0.00632235
-0.00257846
0.00278926
-0.003293
0.00261217
0.00224308
-0.0127404
-0.00965419
0.0269346
-0.00316166
-0.0143404
-0.000708906
-0.00714149
-0.00506041
0.0110123
0.00231568
-0.0160322
-0.0038337
0.0131368
-0.000158766
-0.00761235
0.00571038
-0.013509
0.00553649
0.0493682
0.0135332
-0.0481749
0.0503303
0.0145518
0.0503465
0.0147
0.0493225
0.014087
0.0474759
0.0130245
0.0450997
0.0117539
0.0424654
0.01044
0.0397796
0.00918834
0.037177
0.00805413
0.0347321
0.00705825
0.0324769
0.00620027
0.0304175
0.00546869
0.0285452
0.00484752
0.0268451
0.00432006
0.0253002
0.00387093
0.0238934
0.00348681
0.022609
0.00315655
0.021433
0.00287101
0.0203531
0.00262273
0.0193584
0.00240564
0.0184394
0.00221482
0.0175881
0.00204624
0.0167973
0.00189658
0.0160608
0.00176312
0.0153733
0.00164361
0.01473
0.00153617
0.0141268
0.00143922
0.0135599
0.00135143
0.0130263
0.00127169
0.0125229
0.00119905
0.0120473
0.00113269
0.0115972
0.00107191
0.0111705
0.00101611
0.0107654
0.00096478
0.0103802
0.000917456
0.0100134
0.000873746
0.00966374
0.000833311
0.00932988
0.000795844
0.00901072
0.000761089
0.00870522
0.000728801
0.00841245
0.000698788
0.00813152
0.000670848
0.00786163
0.000644841
0.00760203
0.000620595
0.00735203
0.000598015
0.007111
0.000576943
0.00687831
0.00055733
0.00665342
0.00053902
0.00643578
0.000522007
0.00622492
0.000506126
0.00602034
0.000491422
0.00582162
0.000477704
0.00562831
0.000465075
0.00544003
0.000453306
0.00525637
0.000442569
0.005077
0.00043258
0.00490151
0.000423588
0.0047296
0.000415236
0.00456091
0.000407871
0.00439516
0.000401038
0.00423199
0.0003952
0.00407115
0.000389785
0.00391229
0.000385397
0.0037552
0.000381304
0.00359951
0.00037829
0.00344507
0.000375425
0.00329149
0.00037371
0.00313867
0.000371975
0.00298621
0.000371466
0.00283407
0.000370719
0.00268185
0.00037126
0.00252961
0.000371281
0.00237694
0.000372641
0.00222401
0.000373149
0.00207041
0.000375039
0.00191645
0.000375675
0.00176176
0.000377695
0.00160679
0.000377973
0.00145122
0.000379619
0.00129571
0.00037897
0.00113996
0.000379656
0.000984864
0.000377402
0.000830213
0.000376366
0.000677096
0.000371851
0.000525564
0.000367926
0.000376466
0.00036118
0.000231132
0.000351659
8.82219e-05
0.00034517
-4.64739e-05
0.000325091
-0.000180881
0.000321987
-0.000304161
0.00029768
-0.000418936
0.000269301
-0.000546886
0.000314183
-0.00060646
0.000124262
-0.000794912
0.000471588
-0.000762508
-9.56061e-05
-0.000922842
0.000361942
-0.000996513
0.000226868
-0.000947291
-0.00021851
-0.00140045
0.00130067
-0.0007363
-0.00191464
-0.00214678
0.00377811
-0.000835635
-0.0034559
-0.00140955
0.00115861
-0.00279589
0.00449391
0.000466555
-0.00923743
-0.00519223
0.0152626
-0.00147313
-0.0100415
-0.00383919
0.00515537
-0.00419717
0.00297017
0.00299983
-0.0199374
-0.0124018
0.0423362
-0.00385896
-0.0228833
-0.00176845
-0.00923191
-0.0065724
0.0158163
0.00349047
-0.0260951
-0.00502437
0.0216516
0.000231234
-0.0128679
0.00764564
-0.0209234
0.00925891
0.0528255
0.0126358
-0.0519281
0.0538528
0.0135245
0.0545353
0.0140176
0.0546026
0.0140197
0.0540023
0.0136248
0.0528038
0.0129524
0.0511363
0.0121075
0.0491464
0.0111782
0.0469688
0.0102318
0.044714
0.00931301
0.0424644
0.00844993
0.0402759
0.00765721
0.038183
0.00694034
0.0362043
0.00629873
0.0343472
0.00572811
0.0326116
0.00522232
0.0309937
0.00477452
0.0294868
0.00437788
0.0280835
0.00402605
0.0267758
0.00371326
0.0255562
0.00343445
0.0244172
0.00318521
0.023352
0.00296174
0.0223544
0.00276075
0.0214185
0.00257943
0.0205393
0.00241539
0.019712
0.00226654
0.0189322
0.00213112
0.0181963
0.0020076
0.0175007
0.00189465
0.0168422
0.00179114
0.016218
0.00169606
0.0156256
0.00160855
0.0150625
0.00152786
0.0145266
0.00145332
0.014016
0.00138434
0.0135289
0.00132043
0.0130636
0.00126112
0.0126186
0.00120602
0.0121926
0.00115478
0.0117843
0.00110709
0.0113926
0.00106264
0.0110162
0.00102123
0.0106542
0.000982589
0.0103056
0.000946564
0.00996967
0.000912924
0.00964544
0.000881576
0.00933218
0.000852296
0.00902915
0.000825054
0.00873567
0.000799618
0.00845109
0.000776026
0.00817479
0.000754017
0.00790617
0.000733708
0.00764471
0.000714792
0.00738982
0.000697477
0.00714102
0.000681386
0.0068978
0.000666833
0.0066597
0.000653346
0.00642622
0.000641364
0.00619698
0.000630294
0.00597146
0.000620729
0.00574933
0.000611921
0.0055301
0.000604646
0.00531345
0.000597953
0.0050989
0.00059285
0.0048862
0.00058813
0.00467483
0.000585083
0.00446462
0.000582188
0.00425504
0.000581054
0.00404599
0.000579772
0.00383694
0.000580311
0.0036279
0.000580313
0.00341837
0.000582179
0.00320847
0.000583044
0.00299772
0.000585791
0.00278643
0.00058697
0.00257414
0.000589987
0.00236137
0.000590738
0.00214775
0.000593247
0.00193403
0.000592691
0.00171991
0.00059378
0.00150646
0.000590856
0.00129348
0.000589342
0.00108233
0.000583002
0.000873157
0.000577101
0.00066704
0.000567298
0.000465736
0.000552963
0.000267611
0.000543294
8.0051e-05
0.00051265
-0.000107145
0.000509182
-0.000279041
0.000469576
-0.000441359
0.000431618
-0.000617587
0.000490411
-0.000709953
0.000216629
-0.000961003
0.000722639
-0.000931804
-0.000124803
-0.00115601
0.000586153
-0.0012489
0.000319755
-0.00121249
-0.000254928
-0.0017637
0.00185187
-0.000973547
-0.0027048
-0.00273383
0.00553836
-0.00110091
-0.00508883
-0.00194011
0.00199781
-0.00343088
0.00598465
0.000514121
-0.0131824
-0.0065237
0.0223004
-0.00193883
-0.0146263
-0.00534868
0.00856526
-0.00512185
0.00274314
0.00379207
-0.0288513
-0.014972
0.0611002
-0.0044366
-0.0334187
-0.00332258
-0.0103459
-0.00809099
0.0205847
0.00487482
-0.0390609
-0.00616317
0.0326896
0.000891821
-0.0199229
0.00967318
-0.0297047
0.014179
0.0565446
0.0119493
-0.0558581
0.0573973
0.0126718
0.058193
0.013222
0.0587186
0.013494
0.0588521
0.0134913
0.0585475
0.013257
0.0578144
0.0128406
0.0567006
0.0122921
0.0552745
0.0116578
0.0536117
0.0109758
0.0517857
0.010276
0.0498617
0.00958119
0.0478944
0.00890763
0.0459268
0.00826632
0.0439909
0.00766397
0.0421093
0.007104
0.0402964
0.00658734
0.0385611
0.00611322
0.0369074
0.0056797
0.0353365
0.00528417
0.0338472
0.00492372
0.0324371
0.00459531
0.0311028
0.00429601
0.0298405
0.004023
0.0286462
0.0037737
0.0275159
0.00354574
0.0264454
0.00333697
0.025431
0.00314549
0.024469
0.00296959
0.0235559
0.00280772
0.0226885
0.00265855
0.0218637
0.00252085
0.0210786
0.00239356
0.0203308
0.00227571
0.0196176
0.00216647
0.0189369
0.00206506
0.0182865
0.00197082
0.0176644
0.00188314
0.0170689
0.0018015
0.0164983
0.00172541
0.0159509
0.00165445
0.0154254
0.0015882
0.0149202
0.00152636
0.0144343
0.00146858
0.0139662
0.00141462
0.013515
0.00136417
0.0130795
0.00131709
0.0126587
0.00127307
0.0122517
0.00123205
0.0118577
0.00119371
0.0114756
0.0011581
0.0111048
0.00112485
0.0107444
0.0010941
0.0103938
0.00106546
0.0100521
0.00103917
0.00971875
0.00101474
0.00939305
0.000992557
0.00907439
0.000972018
0.0087621
0.000953668
0.00845566
0.00093675
0.00815439
0.000922006
0.00785784
0.000908482
0.00756534
0.000897155
0.00727649
0.000886819
0.0069906
0.000878739
0.00670736
0.000871385
0.00642606
0.000866385
0.00614644
0.000861807
0.00586782
0.000859679
0.00559002
0.000857578
0.00531235
0.000857982
0.00503477
0.000857892
0.00475661
0.000860336
0.00447799
0.000861661
0.00419828
0.000865506
0.00391779
0.000867457
0.00363597
0.000871814
0.00335339
0.000873317
0.00306959
0.000877056
0.00278545
0.000876828
0.00250063
0.000878606
0.0022164
0.000875082
0.00193258
0.000873162
0.00165083
0.000864761
0.00137137
0.000856559
0.0010956
0.000843064
0.000825697
0.00082287
0.000559827
0.000809164
0.000306798
0.000765678
5.45711e-05
0.000761407
-0.000177446
0.000701592
-0.000399485
0.000653657
-0.000634955
0.000725881
-0.000771312
0.000352988
-0.0010952
0.00104653
-0.00107788
-0.000142122
-0.00137842
0.000886698
-0.00149542
0.000436748
-0.00148245
-0.000267902
-0.00213404
0.00250344
-0.00122821
-0.00361063
-0.00334207
0.00765218
-0.00139492
-0.00703599
-0.00254241
0.00314532
-0.00407547
0.00751768
0.000527216
-0.0177851
-0.00786985
0.0306975
-0.00245315
-0.0200431
-0.0070915
0.0132037
-0.00609261
0.00174476
0.00457182
-0.0395158
-0.0172834
0.0829553
-0.00487059
-0.0458315
-0.00536022
-0.00985637
-0.00964154
0.024866
0.00636504
-0.0550676
-0.00717508
0.0462297
0.00187756
-0.0289756
0.011749
-0.0395761
0.0203629
0.0605487
0.0113866
-0.0599859
0.0612325
0.0119879
0.0619465
0.012508
0.0625678
0.0128728
0.0629988
0.0130603
0.0631757
0.0130802
0.0630627
0.0129536
0.0626494
0.0127054
0.0619461
0.0123611
0.0609774
0.0119445
0.0597778
0.0114756
0.058387
0.010972
0.0568463
0.0104484
0.0551957
0.00991691
0.0534721
0.00938751
0.0517081
0.00886806
0.0499308
0.00836462
0.0481624
0.0078816
0.0464201
0.00742197
0.0447168
0.0069875
0.0430615
0.00657895
0.0414605
0.00619632
0.0399174
0.00583904
0.0384343
0.00550615
0.0370115
0.00519645
0.0356487
0.00490857
0.0343445
0.0046411
0.0330974
0.00439262
0.0319051
0.00416177
0.0307656
0.00394721
0.0296764
0.00374771
0.0286352
0.00356209
0.0276394
0.00338928
0.0266869
0.00322827
0.0257751
0.00307816
0.0249021
0.00293811
0.0240655
0.00280735
0.0232635
0.00268519
0.022494
0.00257101
0.0217551
0.00246421
0.0210453
0.00236429
0.0203627
0.00227075
0.0197059
0.0021832
0.0190733
0.00210119
0.0184635
0.00202443
0.0178752
0.00195251
0.017307
0.00188525
0.0167579
0.00182225
0.0162265
0.00176343
0.0157119
0.00170838
0.0152128
0.00165713
0.0147285
0.00160923
0.0142578
0.00156483
0.0137998
0.00152343
0.0133537
0.00148533
0.0129185
0.00144991
0.0124935
0.00141763
0.0120778
0.00138775
0.0116705
0.00136092
0.0112711
0.0013362
0.0108786
0.00131451
0.0104924
0.00129466
0.0101117
0.00127785
0.00973597
0.00126259
0.00936429
0.00125043
0.00899621
0.00123947
0.00863087
0.00123173
0.00826787
0.00122481
0.00790634
0.00122122
0.00754599
0.00121792
0.00718597
0.00121801
0.00682613
0.00121773
0.00646563
0.00122083
0.00610455
0.00122274
0.00574207
0.00122799
0.00537852
0.00123101
0.00501317
0.00123716
0.00464668
0.00123981
0.00427845
0.00124529
0.00390952
0.00124576
0.00353944
0.00124868
0.00316976
0.00124476
0.00280026
0.00124267
0.00243295
0.00123207
0.00206814
0.00122137
0.00170762
0.00120358
0.00135395
0.00117654
0.00100526
0.00115785
0.000671815
0.00109912
0.000340255
0.00109297
3.39294e-05
0.00100792
-0.000263535
0.000951122
-0.000571426
0.00103377
-0.000765678
0.000547243
-0.00117479
0.00145565
-0.00118058
-0.000136337
-0.00157215
0.00127827
-0.00171971
0.000584302
-0.00174371
-0.000243915
-0.0024991
0.00325881
-0.00148996
-0.00461977
-0.00395773
0.0101199
-0.00170977
-0.00928397
-0.00320392
0.00463949
-0.00473074
0.00904446
0.000496255
-0.0230121
-0.00920614
0.0403999
-0.00300426
-0.026245
-0.00902666
0.0192261
-0.00713556
-0.000147811
0.00526605
-0.0519175
-0.0193007
0.107522
-0.00513679
-0.0599954
-0.00778778
-0.00720433
-0.0112726
0.0283507
0.00778066
-0.0741208
-0.00798775
0.0619982
0.00322941
-0.0401928
0.0138238
-0.0501705
0.0278174
0.0648316
0.0109024
-0.0643474
0.0653965
0.011423
0.0660037
0.0119009
0.0665878
0.0122886
0.0670864
0.0125617
0.0674509
0.0127157
0.0676459
0.0127586
0.0676474
0.0127039
0.0674422
0.0125663
0.0670262
0.0123605
0.066403
0.0120988
0.0655832
0.0117918
0.0645825
0.011449
0.0634209
0.0110785
0.0621211
0.0106873
0.0607072
0.010282
0.0592035
0.00986831
0.0576335
0.00945161
0.0560189
0.00903658
0.0543791
0.00862725
0.0527311
0.00822699
0.0510889
0.0078385
0.0494641
0.0074638
0.0478659
0.00710432
0.0463013
0.006761
0.0447756
0.00643427
0.0432924
0.00612428
0.0418541
0.00583084
0.0404623
0.0055536
0.0391174
0.00529203
0.0378196
0.00504554
0.0365682
0.00481343
0.0353625
0.00459499
0.0342013
0.00438949
0.0330832
0.00419622
0.0320068
0.00401446
0.0309706
0.00384356
0.0299729
0.00368286
0.0290121
0.00353178
0.0280866
0.0033897
0.0271948
0.00325615
0.026335
0.00313055
0.0255056
0.00301252
0.0247053
0.00290154
0.0239324
0.0027973
0.0231856
0.00269934
0.0224635
0.00260743
0.0217646
0.00252112
0.0210878
0.00244031
0.0204317
0.0023645
0.0197951
0.00229375
0.0191768
0.00222749
0.0185757
0.00216592
0.0179908
0.00210841
0.0174208
0.00205534
0.0168648
0.00200593
0.0163217
0.00196077
0.0157905
0.00191891
0.0152703
0.00188118
0.0147601
0.00184641
0.0142589
0.00181572
0.0137659
0.00178765
0.0132801
0.00176368
0.0128008
0.00174195
0.0123268
0.00172441
0.0118576
0.00170869
0.011392
0.00169728
0.0109296
0.00168721
0.0104693
0.00168159
0.0100105
0.00167666
0.00955231
0.00167622
0.00909442
0.00167562
0.00863574
0.00167951
0.0081763
0.00168218
0.00771506
0.00168923
0.00725234
0.00169373
0.00678721
0.0017023
0.0063204
0.00170662
0.00585111
0.00171458
0.00538057
0.00171631
0.00490819
0.00172107
0.0044358
0.00171715
0.00396311
0.00171536
0.00349257
0.00170261
0.00302452
0.00168942
0.00256127
0.00166683
0.0021057
0.0016321
0.00165611
0.00160745
0.00122411
0.00153112
0.00079506
0.00152202
0.000394236
0.00140874
4.07893e-06
0.00134128
-0.000390114
0.00142796
-0.00065951
0.000816641
-0.00116903
0.00196517
-0.00121211
-9.32616e-05
-0.00171229
0.00177846
-0.00189873
0.000770742
-0.00197708
-0.000165605
-0.00284095
0.00412266
-0.00174333
-0.00571739
-0.00456302
0.0129396
-0.00203158
-0.0118154
-0.0039044
0.00651234
-0.00539526
0.0105353
0.000412238
-0.0288196
-0.0105139
0.051326
-0.00357524
-0.0331837
-0.0110872
0.0267382
-0.00827186
-0.00296182
0.00578406
-0.0659734
-0.0210476
0.134353
-0.00521478
-0.0758282
-0.0104146
-0.00200515
-0.0130273
0.0309634
0.00888233
-0.0960305
-0.00854638
0.0794269
0.00497851
-0.0537177
0.0158514
-0.0610434
0.0364843
0.0694023
0.0104753
-0.0689751
0.0698854
0.0109399
0.0704054
0.0113809
0.0709267
0.0117673
0.0714096
0.0120788
0.0718203
0.0123049
0.0721329
0.0124461
0.0723278
0.0125089
0.072391
0.0125031
0.0723125
0.012439
0.0720852
0.012326
0.0717055
0.0121716
0.0711726
0.0119819
0.0704889
0.0117622
0.0696599
0.0115163
0.0686941
0.0112478
0.0676025
0.0109599
0.0663986
0.0106555
0.0650975
0.0103378
0.0637148
0.0100099
0.0622666
0.00967512
0.0607687
0.00933646
0.0592356
0.00899686
0.0576808
0.00865902
0.0561165
0.00832532
0.054553
0.00799778
0.0529991
0.00767808
0.0514624
0.00736755
0.0499488
0.0070672
0.048463
0.00677777
0.0470088
0.00649971
0.0455889
0.0062333
0.0442053
0.00597861
0.0428592
0.00573558
0.0415513
0.00550405
0.040282
0.00528378
0.0390511
0.00507446
0.0378582
0.00487574
0.0367027
0.00468727
0.0355837
0.00450864
0.0345004
0.0043395
0.0334515
0.00417939
0.0324361
0.004028
0.0314527
0.00388487
0.0305003
0.00374975
0.0295775
0.00362216
0.028683
0.00350194
0.0278156
0.00338859
0.0269738
0.00328205
0.0261566
0.00318178
0.0253625
0.00308785
0.0245903
0.00299965
0.0238389
0.00291743
0.0231069
0.00284044
0.0223931
0.00276916
0.0216963
0.00270266
0.0210155
0.00264167
0.0203493
0.00258505
0.0196967
0.00253382
0.0190566
0.00248654
0.0184277
0.00244462
0.0178091
0.00240625
0.0171996
0.00237326
0.0165981
0.00234338
0.0160036
0.002319
0.015415
0.00229722
0.0148312
0.00228111
0.0142514
0.002267
0.0136743
0.00225873
0.0130993
0.00225167
0.012525
0.00225052
0.0119511
0.00224951
0.0113762
0.00225439
0.0108003
0.00225809
0.010222
0.00226751
0.00964173
0.00227405
0.00905814
0.00228589
0.0084721
0.00229267
0.00788255
0.00230413
0.00729091
0.00230795
0.00669639
0.00231559
0.00610116
0.00231239
0.00550479
0.00231174
0.00491025
0.00229715
0.00431786
0.00228181
0.00373057
0.00225412
0.00315153
0.00221114
0.00257942
0.00217956
0.00202708
0.00208345
0.00147893
0.00207017
0.000963021
0.00192464
0.000463328
0.00184097
-4.09839e-05
0.00193227
-0.000407877
0.00118354
-0.00103697
0.00259427
-0.00113433
4.10167e-06
-0.00176479
0.00240892
-0.00200058
0.00100653
-0.00215561
-1.03706e-05
-0.00313417
0.00510119
-0.0019661
-0.00688547
-0.00513469
0.0161081
-0.00233898
-0.0146111
-0.00461502
0.0087884
-0.00606152
0.0119817
0.00026901
-0.0351502
-0.0117813
0.0633764
-0.00414523
-0.0408198
-0.0131831
0.0357762
-0.00950273
-0.00664275
0.00603525
-0.0815114
-0.022598
0.162987
-0.00507661
-0.0933497
-0.0129502
0.00586974
-0.0148937
0.0329068
0.00942869
-0.120353
-0.00882182
0.0976774
0.00714144
-0.0696809
0.0177985
-0.0717004
0.0462381
0.0742802
0.0100925
-0.0738974
0.0747041
0.010516
0.0751583
0.0109267
0.0756219
0.0113037
0.0760693
0.0116314
0.0764757
0.0118985
0.0768215
0.0121003
0.0770919
0.0122385
0.0772766
0.0123184
0.0773683
0.0123473
0.0773611
0.0123332
0.0772499
0.0122828
0.0770304
0.0122015
0.0766986
0.012094
0.0762513
0.0119635
0.0756868
0.0118124
0.0750047
0.0116419
0.0742069
0.0114533
0.0732971
0.0112475
0.0722814
0.0110256
0.0711678
0.0107887
0.0699658
0.0105385
0.068686
0.0102767
0.0673397
0.0100052
0.0659387
0.00972636
0.0644943
0.00944216
0.0630175
0.0091548
0.0615187
0.00886633
0.0600072
0.00857865
0.0584915
0.00829346
0.0569789
0.00801226
0.0554759
0.00773633
0.0539877
0.00746672
0.052519
0.00720427
0.0510734
0.00694965
0.0496538
0.00670335
0.0482625
0.00646575
0.0469012
0.00623704
0.0455711
0.00601738
0.0442729
0.00580679
0.0430071
0.00560528
0.0417738
0.0054127
0.0405728
0.00522901
0.0394037
0.00505394
0.038266
0.00488744
0.0371591
0.00472916
0.0360819
0.00457908
0.0350338
0.00443676
0.0340136
0.00430228
0.0330203
0.00417508
0.0320528
0.00405538
0.03111
0.0039425
0.0301906
0.00383684
0.0292935
0.00373755
0.0284174
0.00364526
0.0275612
0.0035589
0.0267235
0.00347941
0.0259031
0.00340541
0.0250987
0.0033382
0.0243093
0.00327606
0.0235332
0.0032207
0.0227695
0.00316997
0.0220166
0.00312612
0.0212736
0.00308639
0.0205389
0.00305371
0.0198116
0.00302456
0.01909
0.00300271
0.0183733
0.00298369
0.0176598
0.00297222
0.0169489
0.0029626
0.0162388
0.00296064
0.0155291
0.00295924
0.014818
0.0029655
0.0141054
0.00297068
0.0133896
0.00298332
0.0126709
0.00299273
0.0119477
0.00300904
0.011221
0.0030194
0.0104893
0.00303582
0.0097543
0.00304297
0.00901487
0.00305503
0.00827357
0.00305368
0.00752977
0.00305554
0.00678705
0.00303988
0.00604562
0.00302325
0.00530923
0.00299051
0.00458122
0.00293915
0.00386091
0.00289987
0.0031622
0.00278216
0.00246904
0.00276333
0.0018122
0.00258149
0.00117506
0.00247811
0.000534035
0.0025733
4.98913e-05
0.00166768
-0.000724507
0.00336867
-0.000895967
0.000175559
-0.00168388
0.00319683
-0.00198168
0.00130433
-0.00224247
0.000250223
-0.00334317
0.00620186
-0.00212712
-0.00810153
-0.00564201
0.019623
-0.00260097
-0.0176522
-0.00529745
0.0114849
-0.00671167
0.0133959
5.85118e-05
-0.0419204
-0.013
0.0764348
-0.00468794
-0.0491319
-0.0152081
0.0462964
-0.0108002
-0.0110506