/*--------------------------------*- C++ -*----------------------------------*\
| =========                 |                                                 |
| \\      /  F ield         | OpenFOAM: The Open Source CFD Toolbox           |
|  \\    /   O peration     | Version:  2412                                  |
|   \\  /    A nd           | Website:  www.openfoam.com                      |
|    \\/     M anipulation  |                                                 |
\*---------------------------------------------------------------------------*/
FoamFile
{
    version     2.0;
    format      ascii;
    arch        "LSB;label=32;scalar=64";
    class       volScalarField;
    location    "0.78";
    object      p;
}
// * * * * * * * * * * * * * * * * * * * * * * * * * * * * * * * * * * * * * //

dimensions      [0 2 -2 0 0 0 0];

internalField   nonuniform List<scalar> 
12600
(
0.0680785
-154.651
-204.736
-201.558
-189.167
-177.641
-167.533
-158.489
-150.294
-142.786
-135.837
-129.353
-123.26
-117.502
-112.033
-106.814
-101.816
-97.0123
-92.3813
-87.9043
-83.5656
-79.3512
-75.2491
-71.2489
-67.3411
-63.5175
-59.7707
-56.0941
-52.4817
-48.9282
-45.4285
-41.9784
-38.5735
-35.2103
-31.8852
-28.5949
-25.3365
-22.1071
-18.9042
-15.7253
-12.568
-9.43024
-6.30978
-3.20473
-0.113149
2.96669
6.03662
9.09816
12.153
15.2026
18.2484
21.2917
24.3341
27.3764
30.4203
33.4662
36.5162
39.5701
42.63
45.6955
48.7688
51.8489
54.9384
58.0355
61.1432
64.259
67.3861
70.5211
73.6674
76.8207
79.9848
83.1541
86.3326
89.5139
92.7015
95.8888
99.0779
102.263
105.444
108.617
111.776
114.924
118.048
121.157
124.227
127.28
130.278
133.259
136.167
139.059
141.861
144.648
147.33
150.006
152.54
155.186
157.314
160.47
161.592
164.886
167.978
164.94
176.779
170.118
171.47
190.593
166.841
183.922
202.688
162.968
202.404
218.818
169.292
195.45
240.027
227.6
214.789
226.589
258.295
270.779
-24.1302
-123.808
-171.259
-180.926
-177.763
-171.071
-163.368
-155.64
-148.248
-141.269
-134.688
-128.47
-122.575
-116.967
-111.613
-106.485
-101.559
-96.8126
-92.2278
-87.7885
-83.4804
-79.2912
-75.2099
-71.2268
-67.3331
-63.5213
-59.7842
-56.1157
-52.51
-48.962
-45.4669
-42.0204
-38.6185
-35.2577
-31.9344
-28.6456
-25.3883
-22.1597
-18.9574
-15.7787
-12.6216
-9.48372
-6.36307
-3.25773
-0.16576
2.91455
5.98502
9.04714
12.1027
15.1528
18.1994
21.2434
24.2865
27.3295
30.3742
33.4209
36.4716
39.5263
42.5869
45.6532
48.7272
51.8081
54.8982
57.9962
61.1046
64.2211
67.3488
70.4845
73.6315
76.7855
79.9502
83.1203
86.2994
89.4814
92.6696
95.8576
99.0474
102.233
105.415
108.588
111.749
114.897
118.022
121.131
124.202
127.255
130.255
133.236
136.145
139.037
141.84
144.628
147.311
149.988
152.522
155.17
157.296
160.456
161.58
164.861
167.981
164.913
176.755
170.149
171.395
190.597
166.887
183.793
202.749
163.003
202.205
218.902
169.415
195.235
239.895
227.68
214.82
226.472
258.151
270.729
-40.9835
-102.429
-145.227
-162.716
-166.083
-163.497
-158.4
-152.291
-145.898
-139.559
-133.409
-127.494
-121.82
-116.377
-111.148
-106.118
-101.268
-96.5819
-92.0457
-87.6455
-83.3693
-79.2062
-75.1462
-71.1807
-67.3017
-63.5019
-59.7749
-56.1146
-52.5158
-48.9735
-45.483
-42.0404
-38.6418
-35.2835
-31.9623
-28.6752
-25.4191
-22.1916
-18.9899
-15.8118
-12.6549
-9.51725
-6.39663
-3.29121
-0.199058
2.88151
5.9523
9.0148
12.0707
15.1214
18.1684
21.2129
24.2566
27.3001
30.3453
33.3926
36.4438
39.4991
42.5603
45.6271
48.7017
51.7831
54.8738
57.9722
61.0812
64.1982
67.3265
70.4626
73.6101
76.7646
79.9298
83.1004
86.28
89.4625
92.6511
95.8396
99.0298
102.216
105.398
108.572
111.733
114.882
118.007
121.117
124.188
127.242
130.242
133.224
136.133
139.026
141.829
144.617
147.301
149.978
152.513
155.162
157.287
160.449
161.572
164.849
167.985
164.898
176.743
170.168
171.358
190.604
166.913
183.724
202.779
163.022
202.099
218.96
169.482
195.135
239.827
227.725
214.839
226.418
258.078
270.703
-48.9439
-88.7425
-124.173
-144.714
-152.959
-154.295
-152.031
-147.858
-142.751
-137.272
-131.709
-126.205
-120.825
-115.599
-110.535
-105.631
-100.88
-96.2719
-91.7981
-87.4483
-83.2131
-79.0835
-75.0512
-71.1085
-67.2485
-63.4645
-59.7507
-56.1015
-52.5119
-48.9773
-45.4933
-42.0561
-38.662
-35.3075
-31.9894
-28.7048
-25.4509
-22.225
-19.0247
-15.8477
-12.6916
-9.55453
-6.43433
-3.32916
-0.237137
2.84342
5.91429
8.97695
12.0331
15.0841
18.1314
21.1763
24.2204
27.2643
30.31
33.3578
36.4095
39.4652
42.5269
45.5942
48.6693
51.7513
54.8425
57.9415
61.0509
64.1685
67.2973
70.4339
73.582
76.737
79.9027
83.0738
86.2538
89.4369
92.626
95.815
99.0058
102.193
105.375
108.55
111.711
114.861
117.986
121.096
124.169
127.223
130.223
133.206
136.116
139.009
141.813
144.601
147.286
149.964
152.498
155.15
157.272
160.438
161.562
164.83
167.989
164.873
176.728
170.189
171.297
190.616
166.939
183.622
202.848
163.032
201.944
219.034
169.556
194.945
239.738
227.797
214.851
226.306
257.966
270.668
-54.0391
-80.5373
-107.459
-127.144
-138.278
-143.066
-143.735
-141.816
-138.35
-134.032
-129.291
-124.372
-119.418
-114.505
-109.675
-104.949
-100.336
-95.8362
-91.4482
-87.1672
-82.9876
-78.9033
-74.9082
-70.9963
-67.1617
-63.3989
-59.7027
-56.0683
-52.4911
-48.9669
-45.4917
-42.0619
-38.6739
-35.3245
-32.0108
-28.7298
-25.4788
-22.2554
-19.0571
-15.8816
-12.7269
-9.59078
-6.47134
-3.36673
-0.275073
2.80526
5.87604
8.93872
11.995
15.0461
18.0938
21.139
24.1834
27.2278
30.2739
33.3221
36.3743
39.4306
42.4928
45.5607
48.6363
51.7188
54.8106
57.9102
61.0202
64.1383
67.2676
70.4049
73.5534
76.709
79.8753
83.0469
86.2275
89.4112
92.6009
95.7904
98.9818
102.169
105.352
108.527
111.689
114.839
117.966
121.076
124.149
127.204
130.205
133.188
136.099
138.993
141.797
144.586
147.271
149.95
152.485
155.137
157.258
160.427
161.551
164.814
167.992
164.849
176.716
170.21
171.239
190.632
166.961
183.524
202.906
163.032
201.793
219.147
169.618
194.77
239.657
227.868
214.857
226.213
257.86
270.635
-57.37
-75.5284
-95.1478
-112.038
-123.893
-130.835
-133.91
-134.179
-132.522
-129.61
-125.925
-121.793
-117.423
-112.949
-108.452
-103.98
-99.5628
-95.2165
-90.9494
-86.7647
-82.6625
-78.6409
-74.697
-70.8271
-67.0271
-63.2931
-59.6209
-56.0065
-52.4461
-48.936
-45.4727
-42.0528
-38.6733
-35.331
-32.0232
-28.7472
-25.5004
-22.2805
-19.0851
-15.9121
-12.7593
-9.62481
-6.50664
-3.40303
-0.312145
2.76762
5.83801
8.90046
11.9566
15.0078
18.0555
21.1009
24.1455
27.1902
30.2366
33.2853
36.3379
39.3946
42.4573
45.5256
48.6018
51.6848
54.7771
57.8772
60.9877
64.1064
67.2363
70.3741
73.5232
76.6794
79.8462
83.0184
86.1996
89.3837
92.574
95.7642
98.9561
102.144
105.328
108.503
111.666
114.817
117.944
121.055
124.128
127.184
130.186
133.169
136.08
138.975
141.78
144.57
147.255
149.935
152.47
155.124
157.243
160.416
161.538
164.795
167.996
164.821
176.704
170.229
171.173
190.655
166.977
183.415
202.984
163.018
201.626
219.255
169.663
194.553
239.575
227.952
214.854
226.088
257.743
270.603
-59.033
-72.0581
-86.3963
-100.103
-111.199
-118.924
-123.496
-125.481
-125.474
-124.005
-121.507
-118.319
-114.687
-110.787
-106.735
-102.61
-98.4648
-94.3327
-90.2355
-86.1864
-82.1932
-78.2597
-74.3874
-70.5762
-66.8245
-63.1303
-59.4913
-55.9045
-52.3672
-48.8765
-45.4295
-42.0234
-38.6554
-35.3229
-32.0233
-28.7543
-25.5134
-22.2985
-19.1072
-15.9377
-12.7878
-9.65566
-6.53946
-3.43746
-0.347853
2.7309
5.80051
8.86237
11.9181
14.969
18.0166
21.062
24.1067
27.1515
30.1982
33.2471
36.3
39.3571
42.4202
45.489
48.5656
51.6491
54.742
57.8425
60.9536
64.0728
67.2033
70.3416
73.4913
76.648
79.8154
82.9882
86.17
89.3548
92.5456
95.7364
98.9289
102.118
105.302
108.478
111.641
114.793
117.92
121.032
124.106
127.163
130.165
133.149
136.061
138.956
141.762
144.552
147.239
149.919
152.454
155.11
157.227
160.405
161.525
164.777
167.999
164.791
176.695
170.247
171.101
190.686
166.986
183.298
203.073
162.988
201.444
219.4
169.688
194.311
239.497
228.043
214.839
225.954
257.618
270.571
-59.5335
-69.3097
-80.0418
-90.9026
-100.565
-108.125
-113.36
-116.448
-117.712
-117.503
-116.153
-113.956
-111.152
-107.928
-104.423
-100.738
-96.946
-93.0981
-89.2298
-85.3657
-81.5225
-77.7111
-73.9386
-70.2092
-66.5249
-62.8865
-59.2936
-55.7454
-52.2403
-48.7765
-45.3521
-41.9651
-38.6131
-35.2942
-32.0062
-28.7468
-25.5141
-22.3061
-19.1207
-15.9561
-12.8104
-9.68174
-6.56844
-3.46884
-0.381215
2.69593
5.76424
8.82507
11.88
14.9303
17.9775
21.0226
24.0672
27.112
30.1587
33.2077
36.2609
39.3183
42.3817
45.4509
48.5279
51.6118
54.7052
57.8062
60.9178
64.0375
67.1685
70.3074
73.4577
76.615
79.783
82.9564
86.1387
89.3241
92.5156
95.707
98.9002
102.09
105.274
108.451
111.615
114.767
117.896
121.008
124.083
127.14
130.143
133.128
136.041
138.937
141.743
144.534
147.221
149.902
152.438
155.095
157.21
160.393
161.51
164.759
168.003
164.756
176.689
170.263
171.023
190.726
166.985
183.17
203.178
162.938
201.243
219.566
169.687
194.027
239.424
228.145
214.81
225.796
257.482
270.538
-59.3175
-66.8932
-75.139
-83.7084
-91.8116
-98.706
-104.01
-107.661
-109.771
-110.53
-110.161
-108.884
-106.903
-104.391
-101.492
-98.3148
-94.9447
-91.4457
-87.8653
-84.2387
-80.5913
-76.9417
-73.303
-69.6844
-66.0921
-62.5302
-59.0012
-55.5062
-52.0457
-48.6194
-45.2265
-41.866
-38.5364
-35.2364
-31.9644
-28.7186
-25.4974
-22.2991
-19.1219
-15.9643
-12.8244
-9.70077
-6.59166
-3.49557
-0.410874
2.66383
5.73014
8.78934
11.843
14.8922
17.9386
20.9831
24.0272
27.0717
30.1183
33.1673
36.2206
39.2781
42.3417
45.4112
48.4885
51.5729
54.6666
57.7681
60.8802
64.0005
67.132
70.2714
73.4223
76.5802
79.7487
82.9227
86.1057
89.2918
92.4839
95.676
98.8698
102.06
105.245
108.423
111.588
114.741
117.869
120.983
124.058
127.116
130.12
133.106
136.019
138.916
141.723
144.515
147.203
149.884
152.42
155.079
157.192
160.381
161.493
164.74
168.007
164.717
176.687
170.276
170.935
190.777
166.972
183.03
203.303
162.864
201.02
219.765
169.656
193.698
239.356
228.257
214.765
225.617
257.332
270.504
-58.6291
-64.615
-71.0918
-77.9033
-84.5914
-90.6282
-95.639
-99.4499
-102.036
-103.465
-103.858
-103.361
-102.126
-100.3
-98.0109
-95.3675
-92.458
-89.3528
-86.1069
-82.7632
-79.3545
-75.906
-72.4365
-68.9603
-65.4879
-62.0269
-58.5828
-55.1595
-51.7595
-48.3842
-45.0344
-41.7103
-38.4117
-35.1378
-31.888
-28.6611
-25.4559
-22.2711
-19.1055
-15.9577
-12.8262
-9.70958
-6.60643
-3.51538
-0.434928
2.63622
5.69955
8.75628
11.8079
14.8555
17.9005
20.9439
23.9872
27.0312
30.0773
33.126
36.1791
39.2366
42.3003
45.3699
48.4475
51.5322
54.6263
57.7282
60.8407
63.9614
67.0935
70.2335
73.3849
76.5433
79.7125
82.8871
86.0708
89.2575
92.4503
95.6431
98.8376
102.028
105.215
108.393
111.559
114.712
117.842
120.956
124.032
127.091
130.096
133.082
135.996
138.894
141.702
144.494
147.183
149.865
152.402
155.062
157.173
160.369
161.475
164.722
168.01
164.673
176.689
170.285
170.839
190.841
166.945
182.876
203.449
162.762
200.771
220.001
169.589
193.313
239.298
228.382
214.702
225.411
257.168
270.469
-57.5984
-62.3909
-67.5683
-73.0469
-78.5463
-83.7125
-88.2445
-91.9469
-94.7249
-96.5624
-97.5011
-97.6214
-97.0226
-95.8134
-94.1005
-91.9812
-89.5399
-86.8476
-83.9627
-80.9325
-77.7948
-74.5796
-71.3105
-68.0061
-64.6808
-61.3456
-58.009
-54.6775
-51.3559
-48.0475
-44.7548
-41.4794
-38.2223
-34.9839
-31.7643
-28.5632
-25.38
-22.2141
-19.0645
-15.9303
-12.8104
-9.70371
-6.60899
-3.52508
-0.450693
2.61533
5.67435
8.72745
11.776
14.8211
17.8641
20.9058
23.9478
26.9906
30.0359
33.084
36.1367
39.1939
42.2575
45.3271
48.4048
51.4896
54.584
57.6862
60.7991
63.9203
67.0528
70.1933
73.3453
76.5044
79.6742
82.8494
86.0338
89.2211
92.4147
95.6082
98.8034
101.995
105.182
108.361
111.528
114.682
117.812
120.928
124.005
127.064
130.07
133.057
135.972
138.871
141.68
144.473
147.162
149.845
152.383
155.044
157.153
160.356
161.454
164.704
168.014
164.624
176.697
170.29
170.731
190.919
166.902
182.705
203.62
162.627
200.494
220.278
169.485
192.865
239.25
228.521
214.622
225.18
256.986
270.432
-56.3025
-60.1815
-64.3797
-68.8394
-73.3716
-77.7414
-81.7304
-85.1672
-87.9352
-89.9724
-91.2658
-91.8428
-91.7569
-91.0779
-89.8848
-88.2573
-86.2701
-83.99
-81.4745
-78.7727
-75.9249
-72.9646
-69.9188
-66.8094
-63.6539
-60.4665
-57.2583
-54.0382
-50.8129
-47.5879
-44.3673
-41.1541
-37.9507
-34.7586
-31.5788
-28.412
-25.2582
-22.1176
-18.9898
-15.8742
-12.7703
-9.6773
-6.59427
-3.52036
-0.454484
2.60429
5.65716
8.70505
11.7493
14.7906
17.8305
20.8697
23.9096
26.9507
29.9946
33.0417
36.0935
39.1501
42.2133
45.2827
48.3603
51.4451
54.5396
57.6421
60.7553
63.8768
67.0098
70.1508
73.3033
76.463
79.6334
82.8093
85.9943
89.1825
92.3767
95.571
98.7671
101.959
105.147
108.327
111.495
114.65
117.781
120.897
123.976
127.036
130.042
133.031
135.947
138.846
141.656
144.45
147.14
149.824
152.363
155.025
157.132
160.343
161.431
164.684
168.017
164.569
176.711
170.289
170.611
191.03
166.84
182.517
203.82
162.456
200.187
220.602
169.342
192.346
239.217
228.675
214.524
224.916
256.787
270.391
-54.8024
-57.9711
-61.4131
-65.0806
-68.8338
-72.5128
-75.967
-79.0632
-81.6914
-83.7722
-85.2615
-86.1494
-86.4536
-86.2098
-85.468
-84.2865
-82.7258
-80.844
-78.6945
-76.3247
-73.7757
-71.0826
-68.2746
-65.3762
-62.4075
-59.385
-56.3221
-53.2298
-50.1169
-46.9905
-43.8562
-40.7187
-37.5813
-34.4467
-31.3171
-28.194
-25.0782
-21.9705
-18.8712
-15.7803
-12.6977
-9.62312
-6.55594
-3.49567
-0.441505
2.60723
5.65152
8.69209
11.7301
14.7662
17.8016
20.837
23.8738
26.9123
29.9542
32.9995
36.05
39.1055
42.1679
45.2366
48.3139
51.3985
54.4929
57.5955
60.7089
63.8307
66.9641
70.1055
73.2586
76.4188
79.5898
82.7664
85.9522
89.1411
92.3361
95.5313
98.7282
101.921
105.11
108.291
111.459
114.616
117.748
120.865
123.944
127.006
130.013
133.003
135.92
138.82
141.631
144.426
147.117
149.802
152.342
155.005
157.111
160.329
161.406
164.672
168.02
164.504
176.733
170.283
170.477
191.151
166.756
182.311
204.051
162.243
199.847
220.977
169.157
191.75
239.198
228.848
214.411
224.631
256.563
270.345
-53.1493
-55.7542
-58.5986
-61.6397
-64.7648
-67.8599
-70.8233
-73.5582
-75.9733
-77.9902
-79.5519
-80.6266
-81.2061
-81.3007
-80.9345
-80.1437
-78.9718
-77.4652
-75.6697
-73.6284
-71.3804
-68.9607
-66.3996
-63.723
-60.9529
-58.1078
-55.2032
-52.2518
-49.2642
-46.2491
-43.2136
-40.1635
-37.1035
-34.0373
-30.9679
-27.8978
-24.8287
-21.762
-18.6985
-15.6391
-12.5839
-9.53317
-6.48677
-3.44454
-0.405998
2.62922
5.66186
8.6924
11.7218
14.7505
17.7797
20.8098
23.842
26.8768
29.9155
32.9582
36.0066
39.0604
42.1214
45.1891
48.2656
51.3497
54.4438
57.5462
60.6597
63.7816
66.9152
70.0571
73.2106
76.3713
79.543
82.7203
85.9068
89.0965
92.2924
95.4885
98.6863
101.881
105.07
108.253
111.422
114.579
117.713
120.831
123.911
126.974
129.982
132.973
135.891
138.792
141.604
144.401
147.093
149.778
152.319
154.983
157.088
160.315
161.379
164.644
168.023
164.437
176.763
170.27
170.328
191.298
166.648
182.083
204.317
161.984
199.472
221.408
168.932
191.074
239.196
229.04
214.285
224.317
256.316
270.291
-51.3715
-53.523
-55.8885
-58.4276
-61.0436
-63.651
-66.1807
-68.5657
-70.7355
-72.6218
-74.1666
-75.3285
-76.0836
-76.4243
-76.3554
-75.8932
-75.0642
-73.9012
-72.44
-70.7168
-68.7667
-66.6224
-64.3134
-61.8663
-59.3039
-56.6462
-53.9102
-51.1103
-48.2585
-45.3652
-42.4386
-39.486
-36.513
-33.5246
-30.5245
-27.5161
-24.5019
-21.4839
-18.4636
-15.4423
-12.4208
-9.39982
-6.37955
-3.36025
-0.34179
2.67589
5.69325
8.7105
11.7284
14.7471
17.7678
20.7905
23.8165
26.8459
29.8801
32.919
35.9642
39.0154
42.0743
45.1404
48.2155
51.2986
54.392
57.494
60.6072
63.7291
66.8628
70.0049
73.1588
76.3201
79.4923
82.6703
85.8576
89.0482
92.245
95.442
98.6409
101.836
105.027
108.211
111.381
114.54
117.674
120.794
123.875
126.94
129.949
132.941
135.86
138.763
141.576
144.374
147.067
149.753
152.296
154.96
157.063
160.301
161.349
164.633
168.025
164.351
176.808
170.249
170.164
191.47
166.513
181.835
204.62
161.675
199.064
221.894
168.672
190.319
239.206
229.252
214.151
223.986
256.041
270.225
-49.49
-51.2737
-53.2508
-55.383
-57.5834
-59.7844
-61.9389
-64.0017
-65.9211
-67.6414
-69.1103
-70.2847
-71.1337
-71.6386
-71.7911
-71.5928
-71.0546
-70.196
-69.0417
-67.6194
-65.958
-64.0862
-62.0313
-59.8186
-57.4711
-55.0091
-52.4507
-49.8116
-47.105
-44.3426
-41.534
-38.6876
-35.8102
-32.9076
-29.9848
-27.0457
-24.0937
-21.1314
-18.161
-15.1843
-12.2026
-9.21699
-6.22822
-3.23687
-0.243146
2.75268
5.75078
8.75111
11.7541
14.76
17.7693
20.7822
23.7998
26.8219
29.8498
32.8834
35.9241
38.9715
42.0274
45.0908
48.1639
51.2453
54.3375
57.4385
60.5511
63.6726
66.8062
69.9484
73.1025
76.2642
79.437
82.6157
85.8037
88.9952
92.193
95.3911
98.5911
101.788
104.98
108.165
111.336
114.497
117.632
120.754
123.836
126.902
129.913
132.907
135.827
138.732
141.545
144.345
147.039
149.726
152.27
154.935
157.038
160.286
161.316
164.615
168.023
164.272
176.855
170.221
169.982
191.671
166.349
181.566
204.964
161.316
198.617
222.44
168.384
189.486
239.23
229.479
214.021
223.641
255.737
270.146
-47.522
-49.0047
-50.6638
-52.4624
-54.3208
-56.183
-58.0162
-59.7912
-61.471
-63.0119
-64.3697
-65.5049
-66.3849
-66.9857
-67.2915
-67.2937
-66.9917
-66.3928
-65.5112
-64.3655
-62.9773
-61.3696
-59.566
-57.5893
-55.4611
-53.2015
-50.8287
-48.3589
-45.8065
-43.1838
-40.5019
-37.7701
-34.9963
-32.1873
-29.349
-26.4862
-23.603
-20.7028
-17.7883
-14.862
-11.9257
-8.98083
-6.02862
-3.07003
-0.105605
2.86406
5.83888
8.8185
11.8032
14.7928
17.7879
20.7882
23.7948
26.8073
29.827
32.8534
35.888
38.9301
41.9815
45.0412
48.1112
51.1901
54.2803
57.3797
60.4912
63.6119
66.745
69.8869
73.041
76.2029
79.3762
82.5554
85.7442
88.9366
92.1354
95.3347
98.5358
101.734
104.927
108.114
111.287
114.449
117.586
120.709
123.794
126.861
129.874
132.869
135.791
138.697
141.513
144.314
147.009
149.698
152.244
154.909
157.01
160.27
161.28
164.601
168.021
164.176
176.912
170.186
169.785
191.9
166.155
181.272
205.346
160.91
198.141
223.03
168.086
188.594
239.254
229.724
213.897
223.295
255.401
270.047
-45.4807
-46.7152
-48.1115
-49.6343
-51.2092
-52.788
-54.3477
-55.8699
-57.3288
-58.6911
-59.9209
-60.9839
-61.8497
-62.493
-62.8943
-63.0394
-62.9199
-62.5339
-61.8863
-60.9869
-59.8498
-58.4917
-56.9312
-55.1876
-53.2799
-51.2268
-49.0456
-46.7527
-44.3625
-41.8883
-39.3417
-36.7329
-34.0708
-31.3632
-28.6168
-25.8372
-23.0294
-20.1974
-17.3448
-14.4743
-11.5885
-8.68941
-5.77848
-2.85715
0.0736928
3.01312
5.96076
8.916
11.8789
14.849
17.8266
20.8116
23.8045
26.8049
29.814
32.8311
35.8576
38.8927
41.9381
44.9926
48.0583
51.1335
54.2207
57.3177
60.4272
63.5464
66.6785
69.8197
72.9735
76.1353
79.3087
82.4884
85.6779
88.8711
92.0709
95.2715
98.4739
101.674
104.869
108.057
111.232
114.396
117.535
120.66
123.746
126.816
129.83
132.828
135.751
138.66
141.477
144.28
146.977
149.667
152.215
154.882
156.981
160.253
161.242
164.586
168.017
164.076
176.984
170.136
169.579
192.145
165.939
180.968
205.763
160.461
197.634
223.67
167.789
187.661
239.269
229.981
213.792
222.961
255.031
269.924
-43.3764
-44.4051
-45.5826
-46.8754
-48.2136
-49.5546
-50.8817
-52.1841
-53.4442
-54.637
-55.734
-56.7065
-57.5278
-58.1741
-58.6249
-58.8637
-58.8775
-58.6585
-58.2041
-57.5168
-56.6037
-55.4751
-54.1441
-52.6255
-50.935
-49.0888
-47.1028
-44.9921
-42.7712
-40.4531
-38.05
-35.5727
-33.0306
-30.4325
-27.7857
-25.0966
-22.371
-19.6137
-16.8288
-14.0199
-11.1899
-8.34143
-5.4764
-2.5967
0.296448
3.20173
6.11849
9.0458
11.9835
14.9309
17.8881
20.8547
23.8312
26.817
29.8131
32.8186
35.8349
38.861
41.8986
44.9463
48.0061
51.0763
54.1593
57.2527
60.3594
63.4762
66.6065
69.7463
72.8992
76.0605
79.2338
82.4136
85.6035
88.7974
91.9982
95.2
98.4038
101.605
104.802
107.992
111.169
114.335
117.476
120.604
123.692
126.765
129.781
132.782
135.707
138.619
141.437
144.243
146.941
149.634
152.183
154.852
156.95
160.235
161.203
164.57
168.013
163.967
177.064
170.081
169.359
192.416
165.699
180.646
206.203
159.994
197.114
224.321
167.533
186.709
239.26
230.242
213.721
222.655
254.625
269.77
-41.2175
-42.0745
-43.0686
-44.1684
-45.3078
-46.4483
-47.5776
-48.6899
-49.7738
-50.8105
-51.7775
-52.6516
-53.4101
-54.0319
-54.4976
-54.7902
-54.895
-54.8006
-54.4995
-53.9887
-53.2691
-52.3454
-51.2252
-49.9186
-48.4373
-46.7944
-45.0033
-43.0777
-41.0307
-38.8751
-36.6228
-34.2847
-31.8708
-29.3902
-26.8508
-24.26
-21.6239
-18.9482
-16.2375
-13.4961
-10.7276
-7.93488
-5.12059
-2.28701
0.564224
3.43142
6.3136
9.20951
12.1187
15.0403
17.9742
20.9196
23.877
26.8456
29.8262
32.8179
35.8218
38.8369
41.8647
44.9038
47.9561
51.0196
54.0969
57.1855
60.288
63.4014
66.5289
69.6665
72.8178
75.9778
79.1504
82.3299
85.5198
88.7142
91.9157
95.1186
98.3238
101.527
104.725
107.918
111.097
114.266
117.409
120.54
123.631
126.707
129.726
132.73
135.657
138.572
141.393
144.202
146.902
149.598
152.148
154.82
156.916
160.214
161.163
164.552
168.006
163.857
177.129
170.023
169.131
192.7
165.444
180.312
206.664
159.531
196.565
224.985
167.32
185.759
239.21
230.495
213.697
222.396
254.183
269.577
-39.0107
-39.7239
-40.5636
-41.5004
-42.4718
-43.4425
-44.4032
-45.3517
-46.2807
-47.1763
-48.0208
-48.7955
-49.4818
-50.0616
-50.5175
-50.8333
-50.9944
-50.9877
-50.8031
-50.4338
-49.8762
-49.1301
-48.1983
-47.0863
-45.8018
-44.3541
-42.7539
-41.0125
-39.1415
-37.1524
-35.0563
-32.8641
-30.5856
-28.2302
-25.8062
-23.3213
-20.7823
-18.1954
-15.5658
-12.8985
-10.1974
-7.46619
-4.70792
-1.92536
0.879429
3.70433
6.54803
9.4089
12.2862
15.1788
18.0863
21.0078
23.9435
26.8923
29.8551
32.8305
35.8199
38.8219
41.8379
44.8665
47.9094
50.9647
54.0348
57.1169
60.2139
63.3226
66.4461
69.5804
72.729
75.8869
79.058
82.2365
85.4259
88.6203
91.8221
95.0259
98.2322
101.437
104.637
107.832
111.013
114.185
117.332
120.466
123.56
126.639
129.661
132.669
135.6
138.519
141.342
144.156
146.857
149.558
152.109
154.787
156.88
160.19
161.123
164.529
167.998
163.744
177.197
169.966
168.899
192.987
165.188
179.972
207.126
159.089
196.012
225.612
167.188
184.843
239.095
230.73
213.735
222.208
253.705
269.337
-36.7618
-37.354
-38.0631
-38.8613
-39.69
-40.5164
-41.3333
-42.1406
-42.9342
-43.7039
-44.4357
-45.1145
-45.7253
-46.2529
-46.6824
-46.9992
-47.1894
-47.24
-47.1399
-46.8798
-46.4533
-45.8566
-45.0885
-44.1506
-43.0465
-41.7821
-40.3648
-38.8032
-37.1068
-35.2853
-33.3489
-31.3074
-29.1703
-26.9469
-24.6454
-22.2739
-19.8394
-17.3487
-14.8074
-12.2209
-9.5938
-6.93028
-4.23377
-1.50759
1.24577
4.02376
6.8247
9.64656
12.4884
15.3485
18.2265
21.121
24.0322
26.9587
29.9011
32.8581
35.8308
38.8175
41.8198
44.8358
47.8677
50.9129
53.974
57.0481
60.1382
63.2407
66.3589
69.4886
72.6333
75.788
78.9566
82.1331
85.3212
88.5148
91.7164
94.9205
98.1276
101.334
104.535
107.733
110.916
114.091
117.241
120.379
123.476
126.56
129.586
132.599
135.533
138.457
141.284
144.103
146.807
149.514
152.064
154.75
156.84
160.161
161.087
164.5
167.989
163.639
177.258
169.921
168.669
193.261
164.955
179.635
207.563
158.718
195.457
226.167
167.167
183.987
238.892
230.93
213.89
222.116
253.194
269.04
-34.4756
-34.9657
-35.5637
-36.2437
-36.9506
-37.6539
-38.3475
-39.0333
-39.709
-40.3672
-40.9968
-41.5858
-42.1218
-42.5926
-42.9855
-43.2878
-43.487
-43.571
-43.5284
-43.3493
-43.0254
-42.5507
-41.921
-41.1346
-40.192
-39.0956
-37.8496
-36.4598
-34.9332
-33.2776
-31.5014
-29.6132
-27.6217
-25.5355
-23.3628
-21.1113
-18.7885
-16.4011
-13.9552
-11.4566
-8.91029
-6.32088
-3.69229
-1.02828
1.66823
4.39424
7.1477
9.92617
12.7284
15.5523
18.3974
21.2617
24.1454
27.0468
29.9663
32.9023
35.8559
38.8252
41.8118
44.8134
47.8322
50.8656
53.9161
56.9806
60.0621
63.1569
66.2683
69.392
72.5315
75.6818
78.8466
82.0201
85.2058
88.3977
91.5982
94.8018
98.0091
101.216
104.419
107.618
110.804
113.982
117.135
120.277
123.378
126.467
129.497
132.515
135.454
138.385
141.215
144.041
146.748
149.463
152.013
154.711
156.797
160.127
161.057
164.461
167.978
163.547
177.298
169.898
168.45
193.498
164.776
179.308
207.94
158.467
194.907
226.595
167.295
183.227
238.569
231.086
214.139
222.149
252.655
268.68
-32.1561
-32.5598
-33.0631
-33.6419
-34.2443
-34.842
-35.43
-36.0109
-36.5841
-37.1442
-37.6822
-38.1885
-38.6532
-39.0662
-39.417
-39.6949
-39.8887
-39.9878
-39.9813
-39.8594
-39.6131
-39.235
-38.7192
-38.0616
-37.26
-36.3139
-35.2248
-33.9956
-32.6309
-31.1361
-29.5177
-27.7828
-25.9388
-23.9934
-21.9541
-19.8284
-17.6234
-15.346
-13.0024
-10.5986
-8.13977
-5.63111
-3.07683
-0.481115
2.15275
4.82129
7.52215
10.2524
13.0106
15.7942
18.6024
21.433
24.2859
27.1591
30.0529
32.9653
35.8975
38.847
41.8157
44.8009
47.8047
50.8244
53.8626
56.9158
59.9871
63.0726
66.1758
69.292
72.425
75.5694
78.7292
81.8984
85.0806
88.2695
91.4679
94.6701
97.8765
101.083
104.287
107.488
110.675
113.856
117.012
120.158
123.263
126.358
129.392
132.417
135.361
138.299
141.134
143.969
146.679
149.406
151.953
154.668
156.749
160.085
161.036
164.409
167.966
163.479
177.304
169.91
168.249
193.67
164.685
178.992
208.213
158.389
194.355
226.837
167.618
182.602
238.094
231.176
214.529
222.338
252.094
268.247
-29.8069
-30.1374
-30.5596
-31.0513
-31.5639
-32.0708
-32.5678
-33.0582
-33.5424
-34.0163
-34.4729
-34.9043
-35.3024
-35.659
-35.9656
-36.2131
-36.3921
-36.4929
-36.5061
-36.4222
-36.2323
-35.9286
-35.504
-34.9531
-34.2716
-33.4571
-32.5085
-31.4263
-30.2126
-28.8707
-27.4049
-25.8206
-24.1235
-22.3202
-20.4172
-18.4214
-16.3393
-14.1776
-11.9424
-9.63982
-7.2752
-4.85389
-2.38039
0.140731
2.70588
5.31119
7.95396
10.6309
13.3402
16.0789
18.846
21.639
24.4574
27.299
30.1639
33.0499
35.9578
38.8852
41.8336
44.8001
47.7871
50.7912
53.8152
56.8553
59.9149
62.9896
66.0829
69.1902
72.3152
75.4524
78.6058
81.7694
84.9467
88.1316
91.3266
94.5262
97.7308
100.937
104.14
107.341
110.53
113.713
116.871
120.021
123.13
126.23
129.269
132.302
135.251
138.198
141.039
143.884
146.598
149.339
151.884
154.62
156.696
160.033
161.029
164.337
167.956
163.448
177.259
169.976
168.074
193.743
164.722
178.68
208.33
158.543
193.786
226.834
168.198
182.171
237.433
231.211
215.085
222.709
251.524
267.739
-27.4313
-27.6996
-28.0522
-28.4687
-28.9036
-29.3322
-29.7508
-30.1629
-30.5698
-30.9683
-31.3528
-31.7168
-32.0537
-32.357
-32.6196
-32.8338
-32.9919
-33.0854
-33.106
-33.0451
-32.8944
-32.646
-32.2927
-31.8281
-31.2469
-30.545
-29.7195
-28.7691
-27.6935
-26.494
-25.1729
-23.7337
-22.1804
-20.5181
-18.7522
-16.8885
-14.9329
-12.8914
-10.7699
-8.57437
-6.31003
-3.98236
-1.596
0.844227
3.3345
5.87058
8.44952
11.0676
13.7228
16.4118
19.1332
21.8842
24.6642
27.4704
30.3031
33.1593
36.0401
38.9425
41.868
44.8136
47.7814
50.7678
53.7757
56.8011
59.8471
62.9094
65.9914
69.0883
72.2038
75.3325
78.4782
81.6348
84.806
87.9855
91.1759
94.3718
97.5734
100.777
103.979
107.18
110.369
113.554
116.714
119.867
122.979
126.085
129.129
132.169
135.124
138.081
140.927
143.785
146.503
149.263
151.803
154.568
156.639
159.97
161.042
164.24
167.949
163.469
177.14
170.116
167.928
193.676
164.932
178.359
208.243
158.997
193.191
226.529
169.112
182.007
236.552
231.174
215.823
223.282
250.958
267.153
-25.0321
-25.2474
-25.5402
-25.8916
-26.2592
-26.6201
-26.9708
-27.3152
-27.6547
-27.9873
-28.3081
-28.612
-28.8935
-29.1472
-29.3673
-29.5476
-29.6814
-29.7616
-29.781
-29.7319
-29.6067
-29.3982
-29.099
-28.7027
-28.2034
-27.5959
-26.8763
-26.0415
-25.0897
-24.0204
-22.8339
-21.5319
-20.1169
-18.5922
-16.9618
-15.2304
-13.403
-11.4848
-9.48101
-7.39724
-5.23854
-3.01027
-0.717035
1.63618
4.04547
6.50629
9.01552
11.5691
14.1647
16.7987
19.4696
22.174
24.9112
27.678
30.4745
33.2975
36.1478
39.0221
41.922
44.844
47.7901
50.7567
53.7464
56.755
59.7857
62.8339
65.9031
68.988
72.0927
75.2113
78.348
81.4964
84.6602
87.8331
91.0177
94.2087
97.4062
100.607
103.806
107.006
110.194
113.379
116.54
119.696
122.811
125.922
128.97
132.018
134.979
137.946
140.799
143.672
146.393
149.176
151.711
154.509
156.58
159.892
161.08
164.113
167.949
163.561
176.921
170.355
167.821
193.424
165.375
178.018
207.912
159.839
192.578
225.876
170.449
182.202
235.434
231.042
216.752
224.064
250.411
266.494
-22.6119
-22.7821
-23.0234
-23.3182
-23.6274
-23.9294
-24.2214
-24.5069
-24.7879
-25.0628
-25.3277
-25.5782
-25.8097
-26.018
-26.1981
-26.345
-26.4531
-26.5164
-26.5287
-26.4832
-26.3732
-26.1921
-25.9331
-25.5897
-25.1559
-24.6262
-23.9959
-23.2608
-22.418
-21.4653
-20.4018
-19.2273
-17.9426
-16.5498
-15.0512
-13.4503
-11.7508
-9.95705
-8.07345
-6.10499
-4.05623
-1.9323
0.262417
2.52295
4.84539
7.22505
9.65869
12.142
14.6724
17.2461
19.8612
22.514
25.2037
27.9267
30.683
33.4688
36.285
39.128
41.9991
44.8945
47.8163
50.7605
53.7297
56.7194
59.7328
62.765
65.8196
68.8911
71.9833
75.0906
78.2168
81.3558
84.5109
87.6762
90.8538
94.0388
97.231
100.428
103.624
106.821
110.007
113.192
116.353
119.511
122.628
125.743
128.795
131.851
134.817
137.796
140.654
143.544
146.268
149.079
151.608
154.442
156.522
159.796
161.146
163.955
167.959
163.748
176.576
170.719
167.775
192.953
166.121
177.672
207.32
161.179
191.989
224.855
172.269
182.846
234.069
230.843
217.868
225.042
249.896
265.772
-20.1731
-20.3049
-20.5016
-20.7472
-21.0055
-21.2564
-21.4973
-21.7317
-21.9617
-22.1862
-22.4019
-22.6051
-22.792
-22.959
-23.1022
-23.2172
-23.2995
-23.3441
-23.3454
-23.2978
-23.1953
-23.032
-22.8018
-22.4985
-22.1163
-21.6496
-21.0933
-20.4429
-19.6943
-18.8445
-17.8912
-16.8331
-15.6694
-14.4008
-13.0282
-11.5538
-9.97986
-8.30986
-6.54716
-4.69595
-2.76015
-0.744415
1.34727
3.51008
5.74031
8.03322
10.3856
12.7929
15.2525
17.7602
20.3142
22.9103
25.5476
28.2221
30.9336
33.6781
36.4563
39.2642
42.103
44.9687
47.8632
50.7822
53.7283
56.6968
59.6907
62.705
65.743
68.7994
71.8776
74.9721
78.0863
81.2146
84.3598
87.5163
90.6857
93.8638
97.0497
100.241
103.433
106.627
109.81
112.994
116.154
119.314
122.432
125.551
128.606
131.67
134.64
137.632
140.494
143.404
146.129
148.971
151.497
154.364
156.47
159.677
161.24
163.775
167.98
164.052
176.087
171.227
167.837
192.244
167.236
177.381
206.481
163.101
191.483
223.475
174.636
184.012
232.492
230.602
219.134
226.181
249.424
265.001
-17.7179
-17.817
-17.9752
-18.1779
-18.3917
-18.598
-18.7945
-18.9844
-19.17
-19.3504
-19.5229
-19.6843
-19.8314
-19.9613
-20.0707
-20.1559
-20.2132
-20.2383
-20.2265
-20.1729
-20.0725
-19.9199
-19.7095
-19.436
-19.0937
-18.6773
-18.1816
-17.6018
-16.9335
-16.173
-15.3171
-14.3634
-13.3101
-12.1565
-10.9024
-9.54845
-8.09598