/*--------------------------------*- C++ -*----------------------------------*\
| =========                 |                                                 |
| \\      /  F ield         | OpenFOAM: The Open Source CFD Toolbox           |
|  \\    /   O peration     | Version:  2412                                  |
|   \\  /    A nd           | Website:  www.openfoam.com                      |
|    \\/     M anipulation  |                                                 |
\*---------------------------------------------------------------------------*/
FoamFile
{
    version     2.0;
    format      ascii;
    arch        "LSB;label=32;scalar=64";
    class       surfaceScalarField;
    location    "0.27";
    object      ddtCorrDdt0(phi);
}
// * * * * * * * * * * * * * * * * * * * * * * * * * * * * * * * * * * * * * //

dimensions      [0 3 -2 0 0 0 0];

oriented        oriented;

internalField   nonuniform List<scalar> 
24930
(
0.00240214
0.0026189
-0.00420626
0.00111712
0.00151826
0.000537285
0.000679871
0.000294164
0.000199358
0.000225167
6.8055e-05
0.000138101
2.315e-05
3.84981e-05
-1.4638e-05
-2.76812e-05
-3.96191e-05
-6.8023e-05
-4.21871e-05
-0.000104797
-3.61091e-05
-0.000149406
-3.19573e-05
-0.000200848
-3.51192e-05
-0.000251441
-4.40019e-05
-0.00029113
-5.24028e-05
-0.00031227
-5.50685e-05
-0.000313354
-5.09554e-05
-0.000299121
-4.23939e-05
-0.000277745
-3.267e-05
-0.000257478
-2.42133e-05
-0.000244318
-1.79989e-05
-0.000241146
-1.39507e-05
-0.000247978
-1.165e-05
-0.000262714
-1.07167e-05
-0.000281939
-1.08017e-05
-0.000301704
-1.14786e-05
-0.000318268
-1.22371e-05
-0.000328696
-1.25952e-05
-0.000331211
-1.22432e-05
-0.000325234
-1.11465e-05
-0.000311162
-9.54285e-06
-0.00028999
-7.86947e-06
-0.000262955
-6.61238e-06
-0.000231289
-6.18382e-06
-0.000196184
-6.78033e-06
-0.000158894
-8.38925e-06
-0.000120947
-1.07722e-05
-8.42579e-05
-1.3618e-05
-5.11486e-05
-1.64755e-05
-2.41403e-05
-1.88352e-05
-5.66495e-06
-1.99362e-05
2.47653e-06
-1.90183e-05
-3.97076e-07
-1.53521e-05
-1.32175e-05
-8.76089e-06
-3.30811e-05
4.38631e-07
-5.53556e-05
1.13243e-05
-7.48085e-05
2.27125e-05
-8.64164e-05
3.33079e-05
-8.68652e-05
4.14669e-05
-7.46397e-05
4.59241e-05
-5.08587e-05
4.47619e-05
-1.84842e-05
3.77991e-05
1.75414e-05
2.33644e-05
5.12328e-05
3.2037e-06
7.73944e-05
-2.47753e-05
9.14821e-05
-5.59687e-05
9.49524e-05
-9.12775e-05
8.92943e-05
-0.00011887
8.43036e-05
-0.00013467
8.26262e-05
-0.000123349
9.08904e-05
-8.28719e-05
0.000104061
-1.65622e-05
0.00011568
6.9049e-05
0.000117948
0.000145001
9.2363e-05
0.00022182
3.94644e-05
0.000265631
-6.51104e-05
0.000318837
-0.000193898
0.00033962
-0.000350566
0.000353579
-0.000473372
0.000314615
-0.000527041
0.000160741
-0.000499455
-4.49958e-05
-0.0003434
-0.000388785
-0.000154426
-0.000625508
9.70101e-05
-0.000788236
0.000358995
-0.000829597
0.000487648
-0.000595729
0.00046352
-0.000326654
1.72655e-05
0.000597289
-0.000579854
0.000894752
-0.000863766
0.00058534
-0.000626741
2.76122e-05
8.71195e-05
-0.000278411
0.000393588
0.000365344
-0.000244271
0.00227101
-0.00136922
0.00281211
-0.00242933
0.00197259
-0.0025775
-0.000964453
-0.0017698
-0.00164301
-0.00104416
-0.00178334
-0.000796475
-0.00150436
-0.000996234
-0.00123942
-0.00213821
-0.00106409
-0.00365081
0.000569976
-0.00439147
-0.000769281
-0.00435207
-0.0013856
-0.00401807
-0.00142886
-0.00381422
-0.000830987
-0.00398544
3.38194e-05
-0.00461173
0.000896966
-0.00591394
0.00204349
-0.00745891
0.00246868
-0.00832264
0.00148937
-0.00713986
-0.000881295
-0.00401027
-0.00315924
-0.000181161
-0.0032399
0.00264974
-0.00241999
0.00358825
-0.000267921
0.00106502
0.00223405
-0.00404296
0.00475652
-0.0102326
0.00553271
-0.016819
0.00603763
-0.0220623
0.00512537
-0.0248961
0.00254398
-0.0265291
0.000615929
-0.0258457
-0.000782859
-0.0232444
-0.00269366
-0.0208188
-0.00302796
-0.0166554
-0.00365273
-0.0183699
0.00153228
-0.00100717
0.00360657
0.00295886
-0.00443701
0.00268664
0.0023613
0.00182386
0.00157138
0.00114941
0.000829636
0.000686293
0.000448168
0.000311162
0.00026548
1.49137e-05
0.000127863
-0.000190941
2.52516e-05
-0.000331955
-2.82776e-05
-0.000447499
-5.34957e-05
-0.000556837
-7.32645e-05
-0.000660954
-9.26507e-05
-0.000752984
-0.000106106
-0.000824263
-0.000108124
-0.000868706
-9.83021e-05
-0.000886144
-8.12925e-05
-0.000882574
-6.35123e-05
-0.000867521
-4.98403e-05
-0.000850563
-4.23283e-05
-0.000838772
-4.06259e-05
-0.000835702
-4.31019e-05
-0.000841626
-4.78577e-05
-0.00085438
-5.32172e-05
-0.0008703
-5.77855e-05
-0.000885111
-6.04249e-05
-0.000894741
-6.03227e-05
-0.000895962
-5.71232e-05
-0.000886767
-5.0997e-05
-0.000866406
-4.26187e-05
-0.000835175
-3.3002e-05
-0.00079403
-2.33261e-05
-0.000744218
-1.46939e-05
-0.000687012
-8.03434e-06
-0.000623671
-3.91793e-06
-0.000555522
-2.67027e-06
-0.00048419
-4.27357e-06
-0.000411692
-8.63409e-06
-0.000340582
-1.52456e-05
-0.000273807
-2.33847e-05
-0.000214538
-3.17266e-05
-0.000165418
-3.91286e-05
-0.000127756
-4.47175e-05
-0.000100435
-4.86088e-05
-7.97436e-05
-5.13442e-05
-5.98849e-05
-5.29896e-05
-3.47471e-05
-5.3157e-05
5.30501e-07
-4.98486e-05
4.83819e-05
-4.33845e-05
0.000108549
-3.25489e-05
0.000178679
-2.16813e-05
0.000253917
-8.97604e-06
0.000328598
-3.22646e-07
0.000394426
1.05925e-05
0.000445787
1.60155e-05
0.000475708
2.47667e-05
0.000486089
2.65439e-05
0.000476105
3.31487e-05
0.000455025
4.07545e-05
0.000422248
6.06077e-05
0.000380243
0.000101083
0.000321896
0.000150076
0.000233632
0.000229121
0.000113538
0.000284313
-6.20832e-05
0.000362214
-0.000272769
0.000378386
-0.000540078
0.000400443
-0.000805584
0.000347702
-0.0010539
0.000254227
-0.00119549
0.000117599
-0.0011498
-0.000165059
-0.000907869
-0.000403244
-0.000382242
-0.00081201
0.000234021
-0.000988172
0.000875278
-0.00097726
0.00130012
-0.000641924
0.00108451
0.00042988
0.000171465
0.00155572
-0.00164413
0.00280983
-0.00325457
0.00233201
-0.00332566
-0.000158406
-0.00162017
-0.00292077
0.000900874
-0.00407209
0.00146551
-0.000938056
-0.000970959
0.00401478
-0.00452651
0.00606674
-0.00720097
0.00455509
-0.00681076
-0.00281568
-0.00390185
-0.00440377
-0.00185597
-0.00311271
-0.00195459
0.000247982
-0.00409553
0.00315551
-0.00888839
0.00373524
-0.013955
0.00755269
-0.0163012
0.00347589
-0.0160146
-0.000796831
-0.0148948
-0.00212858
-0.0143775
-0.00116216
-0.015212
0.00101184
-0.0173036
0.00280095
-0.0210081
0.00520543
-0.0247263
0.00519776
-0.0252556
0.000515041
-0.019531
-0.00839597
-0.00908599
-0.014997
0.00216115
-0.0160345
0.00908134
-0.00952982
0.00865231
0.00143167
-0.00166229
0.0141425
-0.020072
0.0265225
-0.0405554
0.0289998
-0.0604828
0.0284819
-0.0751684
0.0207758
-0.0827177
0.0107389
-0.085394
0.00271348
-0.0817446
-0.00567874
-0.0741809
-0.0104131
-0.0665106
-0.011813
-0.0574562
-0.011127
-0.0563242
-0.00344065
-0.00224151
0.00413432
0.00302749
-0.00449911
0.00373041
0.0028337
0.00313577
0.00229772
0.00239809
0.00159624
0.00166899
0.0011391
0.000990409
0.000850958
0.000421295
0.000579153
-5.78881e-06
0.000338552
-0.000322556
0.000181116
-0.000579584
8.77281e-05
-0.000804492
1.85227e-05
-0.00100284
-3.80741e-05
-0.00117127
-7.54035e-05
-0.00130468
-8.91965e-05
-0.00139987
-8.38085e-05
-0.00145849
-6.892e-05
-0.0014877
-5.40404e-05
-0.00149819
-4.50978e-05
-0.00150086
-4.40995e-05
-0.00150405
-5.03464e-05
-0.00151222
-6.17639e-05
-0.00152611
-7.58436e-05
-0.00154369
-9.01229e-05
-0.00156119
-0.000102362
-0.00157417
-0.000110705
-0.00157838
-0.000113905
-0.00157045
-0.000111545
-0.00154829
-0.000104068
-0.0015111
-9.26656e-05
-0.0014592
-7.89685e-05
-0.00139359
-6.47983e-05
-0.00131557
-5.18493e-05
-0.00122647
-4.16291e-05
-0.00112762
-3.52241e-05
-0.00102039
-3.35222e-05
-0.000906486
-3.69918e-05
-0.00078804
-4.60102e-05
-0.000667866
-6.01058e-05
-0.00054941
-7.81837e-05
-0.000436602
-9.7919e-05
-0.000332913
-0.000117291
-0.000240206
-0.00013491
-0.000157303
-0.00015107
-7.9876e-05
-0.000166503
-1.40393e-06
-0.000180201
8.43616e-05
-0.000189824
0.000181485
-0.000189637
0.000290845
-0.000178919
0.000410331
-0.000154554
0.000535966
-0.000124935
0.000661265
-8.71467e-05
0.000779154
-5.31536e-05
0.000879294
-1.21021e-05
0.00095467
2.11727e-05
0.000996232
6.19131e-05
0.00100533
9.20348e-05
0.000978987
0.000130289
0.000925645
0.000170187
0.000841355
0.000225454
0.000726218
0.000312158
0.000570453
0.000404516
0.000358226
0.000546438
9.21933e-05
0.000641047
-0.000249427
0.000770108
-0.000627587
0.000778063
-0.00105584
0.000773222
-0.00144373
0.00061778
-0.00176077
0.000363119
-0.001883
2.98577e-05
-0.00170273
-0.000555704
-0.0012052
-0.00104763
-0.000293533
-0.00178555
0.000734232
-0.00203771
0.00170132
-0.00180861
0.00215301
-0.000771441
0.00143367
0.00172499
-0.000533545
0.0042987
-0.00375803
0.00655829
-0.00622866
0.0048524
-0.00585752
-0.00109867
-0.00252064
-0.00714923
0.00163616
-0.00899786
0.00203081
-0.00156928
-0.0025303
0.00869143
-0.00858275
0.0120323
-0.0126757
0.00943871
-0.0114313
-0.004953
-0.00644408
-0.00972749
-0.00333609
-0.00619215
-0.00413916
0.00180908
-0.00880248
0.00922031
-0.0176707
0.0141186
-0.0263389
0.0175275
-0.0301105
0.00805983
-0.0294855
-0.00116118
-0.0276491
-0.00387417
-0.0270576
-0.00165059
-0.0288407
0.00308272
-0.0327088
0.00683377
-0.0389341
0.0113647
-0.0444309
0.010266
-0.0436777
-0.00122699
-0.0325034
-0.0209062
-0.0144636
-0.0340581
0.00343185
-0.0347801
0.0126858
-0.0188274
0.00844299
0.00710426
-0.0122604
0.0361125
-0.0458866
0.0629929
-0.0817101
0.0667722
-0.114894
0.0631519
-0.138659
0.0449089
-0.150103
0.0224662
-0.152846
0.00463573
-0.145469
-0.0140898
-0.132244
-0.0234752
-0.119302
-0.0256568
-0.105334
-0.0230648
-0.101652
-0.0111731
-0.00361351
0.00436713
0.00313874
-0.00461369
0.00433769
0.00310995
0.00409425
0.00276556
0.00355378
0.0022217
0.00284523
0.00185547
0.00205493
0.00159336
0.00129715
0.00125476
0.000653946
0.000891016
0.000126422
0.000617363
-0.000321526
0.000435152
-0.000713919
0.000294619
-0.00105628
0.000177853
-0.00134715
9.31225e-05
-0.00158472
4.49182e-05
-0.00176902
2.51222e-05
-0.00190374
1.94964e-05
-0.00199718
1.59195e-05
-0.0020611
7.84088e-06
-0.00210786
-6.79897e-06
-0.00214733
-2.76758e-05
-0.00218527
-5.32595e-05
-0.00222321
-8.12943e-05
-0.00225947
-0.000109108
-0.00229039
-0.000133931
-0.00231145
-0.000153309
-0.00231832
-0.000165563
-0.00230758
-0.000170134
-0.00227709
-0.000167626
-0.00222607
-0.000159607
-0.00215485
-0.000148176
-0.00206449
-0.000135663
-0.00195638
-0.000124259
-0.00183194
-0.000116007
-0.00169257
-0.00011251
-0.00153973
-0.000115263
-0.00137526
-0.000125275
-0.00120152
-0.000143446
-0.00102169
-0.000169303
-0.00083981
-0.000201233
-0.000660624
-0.000235684
-0.000488469
-0.00026964
-0.000325794
-0.000301324
-0.000171466
-0.000331559
-2.0773e-05
-0.000361541
0.000133113
-0.000388982
0.000296068
-0.000408916
0.000470782
-0.000410903
0.000656121
-0.000392766
0.000847668
-0.000349334
0.00103947
-0.000293778
0.00122291
-0.000222108
0.00138903
-0.000153138
0.00152492
-7.08984e-05
0.00162176
1.66187e-06
0.00166814
8.72333e-05
0.00166462
0.000159296
0.00160614
0.000246043
0.00150035
0.000338868
0.00134079
0.000455882
0.00112604
0.000620591
0.000845666
0.000790208
0.000483507
0.0010298
4.96758e-05
0.00118855
-0.000473114
0.00138566
-0.00102503
0.00137806
-0.00160978
0.00132571
-0.00210501
0.00101648
-0.00246558
0.000532303
-0.00253579
-9.4432e-05
-0.00218679
-0.00110884
-0.0014058
-0.00198341
-0.000104349
-0.00317382
0.001301
-0.00350579
0.00250655
-0.00291566
0.00284708
-0.000812146
0.00146372
0.0036784
-0.00168168
0.00822239
-0.00631647
0.01176
-0.00948866
0.00812355
-0.00846701
-0.00263635
-0.00343161
-0.0130243
0.00212415
-0.0152326
0.00194272
-0.00155342
-0.00502936
0.0158606
-0.0136223
0.0206297
-0.0188331
0.0138011
-0.016558
-0.00701884
-0.0095724
-0.0172442
-0.00573469
-0.0101174
-0.00772369
0.00445687
-0.0154526
0.0182469
-0.0287069
0.0315224
-0.0409459
0.0309678
-0.0459824
0.0138563
-0.0449474
-0.00194963
-0.0425054
-0.00621676
-0.0420798
-0.00194805
-0.0451163
0.00645401
-0.0510176
0.0129382
-0.0597645
0.0200562
-0.0665329
0.016597
-0.0636407
-0.00513341
-0.0463275
-0.0395757
-0.0207647
-0.0606371
0.00267017
-0.0590363
0.0122122
-0.0283754
0.00144613
0.0193202
-0.0320355
0.0699157
-0.0826425
0.116073
-0.134555
0.120575
-0.180832
0.110968
-0.213112
0.0775933
-0.227723
0.0374395
-0.229666
0.00579088
-0.217905
-0.0268616
-0.198526
-0.042564
-0.180271
-0.0447906
-0.161502
-0.0395866
-0.155485
-0.0214991
-0.00489601
0.00452631
0.00332347
-0.00467025
0.00467343
0.00330248
0.00466331
0.00303788
0.00435535
0.00264704
0.00382747
0.00242473
0.00314633
0.00226287
0.00240075
0.00195221
0.00167504
0.00155162
0.00100351
0.00121617
0.000383664
0.000971794
-0.000186603
0.000767626
-0.000700412
0.000584952
-0.00115005
0.000438242
-0.00153187
0.000337103
-0.0018464
0.00027318
-0.00209793
0.000229042
-0.00229467
0.000190302
-0.00244846
0.000150262
-0.00257255
0.000107277
-0.00267832
6.12173e-05
-0.00277301
1.24842e-05
-0.00285923
-3.76009e-05
-0.00293587
-8.66671e-05
-0.00299948
-0.000131716
-0.00304564
-0.000169855
-0.00307001
-0.000199025
-0.00306918
-0.000218533
-0.00304102
-0.000229122
-0.00298479
-0.0002327
-0.00290085
-0.000231766
-0.00279032
-0.000229074
-0.00265464
-0.00022722
-0.00249532
-0.000228731
-0.00231382
-0.000235693
-0.00211174
-0.000250195
-0.00189111
-0.000273765
-0.00165457
-0.000307795
-0.00140574
-0.000351716
-0.00114929
-0.000403256
-0.000890829
-0.000457426
-0.000635575
-0.000510114
-0.000386687
-0.000559254
-0.000143324
-0.000606487
9.92523e-05
-0.000653691
0.000347696
-0.00069702
0.000607
-0.000728206
0.000877877
-0.000731067
0.00115664
-0.000701578
0.00143593
-0.000632244
0.00170732
-0.000541706
0.00195934
-0.000424622
0.00218065
-0.000307291
0.00235499
-0.000167712
0.00247133
-3.80373e-05
0.00251539
0.00011276
0.00248676
0.000248486
0.00237832
0.000408216
0.0021972
0.000580806
0.00193561
0.000788982
0.00159171
0.00106323
0.00115717
0.00133914
0.000617461
0.00170296
-6.11455e-06
0.00193837
-0.000724146
0.00220594
-0.00145336
0.00215912
-0.00218649
0.00202181
-0.00277006
0.00149376
-0.00314546
0.000702595
-0.00313079
-0.000312264
-0.00258254
-0.00186551
-0.00150192
-0.00321927
0.000174469
-0.00493624
0.00189965
-0.00529891
0.00323212
-0.00415084
0.00331189
-0.0005897
0.00111078
0.0064529
-0.0033044
0.0134138
-0.00930553
0.018314
-0.0130124
0.0118993
-0.0111777
-0.0050153
-0.00447043
-0.0205721
0.00217312
-0.0225065
0.00100813
-0.000510554
-0.00860519
0.0257275
-0.0196653
0.0318458
-0.0258039
0.0194965
-0.0223036
-0.00948205
-0.0135227
-0.0265727
-0.00935137
-0.0143783
-0.0130362
0.00880004
-0.0243293
0.0307244
-0.0422223
0.0517831
-0.0579325
0.0476921
-0.064056
0.0206418
-0.0625627
-0.00324756
-0.0596482
-0.00906115
-0.0596412
-0.00184923
-0.0642313
0.0113687
-0.0723724
0.0212633
-0.0835396
0.0311386
-0.0910012
0.023605
-0.0852058
-0.011923
-0.0613708
-0.0646981
-0.0287432
-0.0941693
-0.00126801
-0.0871467
0.0062012
-0.0357915
-0.0137399
0.0406914
-0.0624033
0.120692
-0.131317
0.187236
-0.199783
0.190755
-0.258843
0.171446
-0.299099
0.118146
-0.316253
0.0549482
-0.316744
0.00546705
-0.300085
-0.044495
-0.27421
-0.0680059
-0.250629
-0.0692046
-0.227226
-0.0604827
-0.219052
-0.0342584
-0.00592939
0.00467472
0.00349328
-0.00473764
0.0048725
0.00344304
0.0049704
0.00322362
0.00482035
0.00294848
0.00448759
0.00283092
0.00401343
0.00275577
0.003431
0.00251683
0.00278261
0.0021618
0.00210464
0.00184445
0.00141711
0.00159846
0.00073721
0.00137406
8.67638e-05
0.00115275
-0.000513856
0.000955933
-0.00105133
0.000801971
-0.00152014
0.000687433
-0.00192062
0.00059499
-0.00225755
0.000509074
-0.00253995
0.000423656
-0.00277978
0.000338784
-0.00298872
0.000254857
-0.00317496
0.000171332
-0.00334202
8.8285e-05
-0.00348933
7.41367e-06
-0.00361365
-6.8311e-05
-0.00371058
-0.000135686
-0.00377576
-0.00019231
-0.00380579
-0.000237334
-0.00379856
-0.000271617
-0.00375333
-0.000297402
-0.00367045
-0.000317575
-0.00355104
-0.000335268
-0.00339655
-0.000353427
-0.00320852
-0.000375028
-0.00298847
-0.000402622
-0.00273813
-0.000438889
-0.00245972
-0.000485823
-0.00215622
-0.000545255
-0.00183173
-0.000616419
-0.00149153
-0.000696251
-0.00114201
-0.000778109
-0.000789322
-0.000856583
-0.000437518
-0.000929248
-8.64337e-05
-0.000998663
0.000268236
-0.00106753
0.000632485
-0.00113014
0.00100998
-0.00117424
0.00139888
-0.00117667
0.00179232
-0.00113105
0.00217917
-0.00102705
0.00254776
-0.000889583
0.00288289
-0.000711548
0.00317008
-0.000527654
0.00338886
-0.000308774
0.00352535
-9.77039e-05
0.0035617
0.000145857
0.00349621
0.000374273
0.00331982
0.000638432
0.00303947
0.00092366
0.00264759
0.00125627
0.00214324
0.00167339
0.0015235
0.00208274
0.000777652
0.00259347
-5.75832e-05
0.0029107
-0.000984059
0.003243
-0.00189228
0.00312337
-0.00276339
0.00285324
-0.00341445
0.00203138
-0.00377529
0.000845642
-0.00364596
-0.00065548
-0.00287585
-0.00285297
-0.00149487
-0.00476019
0.000519799
-0.00703703
0.00248307
-0.00733125
0.00381056
-0.0053741
0.00347659
6.2003e-05
0.000321814
0.0102051
-0.00541461
0.0199539
-0.012702
0.0261523
-0.0167827
0.0160232
-0.0140385
-0.00833455
-0.00579135
-0.029673
0.00156485
-0.0304983
-0.000957241
0.00188677
-0.0133638
0.0383869
-0.0267831
0.0454212
-0.0335704
0.0258876
-0.0288865
-0.0138843
-0.0185577
-0.0374074
-0.0145091
-0.0184973
-0.0204561
0.0154354
-0.0357468
0.0471951
-0.0583862
0.0759804
-0.077401
0.0677225
-0.0844438
0.0283631
-0.0824629
-0.0050188
-0.0792171
-0.0122263
-0.0798696
-0.00108706
-0.0862883
0.0181208
-0.0968193
0.0319708
-0.110227
0.044434
-0.117809
0.0307008
-0.108538
-0.0222139
-0.0781479
-0.0963778
-0.0392808
-0.133907
-0.00957791
-0.117446
-0.00652106
-0.0389067
-0.0382378
0.0743521
-0.104009
0.187856
-0.19241
0.277938
-0.277699
0.27779
-0.349241
0.244435
-0.397054
0.166244
-0.416408
0.0746905
-0.415087
0.00331267
-0.393245
-0.0673174
-0.360662
-0.100054
-0.331705
-0.0989938
-0.303845
-0.0855993
-0.293634
-0.0493788
-0.00670075
0.00480798
0.0036128
-0.00484071
0.00501127
0.0035579
0.00515169
0.00338987
0.00508803
0.00319588
0.00489796
0.00312515
0.00461204
0.0030877
0.00422083
0.00291581
0.00372729
0.00264141
0.0031535
0.00239234
0.0025229
0.0021931
0.00185372
0.00199655
0.00116781
0.00178335
0.000490512
0.00157538
-0.0001555
0.00139581
-0.000755152
0.00124767
-0.00130071
0.00111664
-0.00178945
0.00098702
-0.0022233
0.000853879
-0.00260886
0.000720442
-0.00295485
0.000589652
-0.00326835
0.000461381
-0.00355253
0.000334929
-0.00380656
0.000211351
-0.00402686
9.35371e-05
-0.00420862
-1.50307e-05
-0.00434707
-0.000111556
-0.0044385
-0.00019491
-0.00448061
-0.000265937
-0.00447247
-0.000327163
-0.00441424
-0.000381835
-0.00430684
-0.000433427
-0.00415158
-0.000485156
-0.00394987
-0.000540388
-0.0037032
-0.000602096
-0.00341333
-0.000673529
-0.00308266
-0.000757078
-0.00271445
-0.000854936
-0.00231324
-0.000966052
-0.0018848
-0.0010865
-0.00143618
-0.00120778
-0.000974401
-0.00132288
-0.000504634
-0.00142868
-2.78645e-05
-0.00152851
0.000459232
-0.00162595
0.000961528
-0.00171318
0.00148104
-0.00177342
0.00201292
-0.00177515
0.00254643
-0.00170891
0.00306558
-0.00156057
0.00355444
-0.00136219
0.00399287
-0.00110439
0.00436242
-0.000831519
0.0046372
-0.000505971
0.00479962
-0.000182908
0.00482723
0.000188286
0.00471658
0.000546191
0.00445659
0.000953923
0.00405446
0.00139173
0.00350449
0.00188721
0.0028081
0.00248392
0.0019716
0.00305333
0.000990261
0.00373081
-7.88758e-05
0.00412756
-0.00122718
0.00450985
-0.00231576
0.00427195
-0.00331416
0.00380937
-0.00401215
0.00260914
-0.00433078
0.000934277
-0.0040626
-0.00114784
-0.00305814
-0.0040829
-0.00139365
-0.00658796
0.000900219
-0.00941482
0.00299635
-0.00949478
0.00416973
-0.00643403
0.00327083
0.00129564
-0.000950485
0.0150482
-0.00801522
0.0278493
-0.0164767
0.0351709
-0.0207936
0.0203681
-0.0171246
-0.0126093
-0.00757308
-0.0401022
7.94827e-05
-0.038799
-0.0041258
0.00595268
-0.0194032
0.0539052
-0.0350119
0.061187
-0.0423209
0.0329332
-0.0364437
-0.0203447
-0.0249766
-0.0493758
-0.0215502
-0.0219879
-0.0302349
0.0248386
-0.0499192
0.0681193
-0.0772926
0.104799
-0.0994198
0.0908735
-0.107214
0.0368663
-0.104719
-0.00728385
-0.101262
-0.0155932
-0.102774
0.000534065
-0.111249
0.0269339
-0.124264
0.0451507
-0.139698
0.0597288
-0.146918
0.0374067
-0.133854
-0.0363175
-0.0972447
-0.134282
-0.0532636
-0.178734
-0.02325
-0.148038
-0.027034
-0.0349009
-0.0726917
0.121474
-0.1574
0.273479
-0.265862
0.388718
-0.36817
0.381847
-0.452038
0.329775
-0.507279
0.221754
-0.528874
0.0967086
-0.525803
-0.000613761
-0.498749
-0.0953607
-0.459373
-0.138788
-0.424857
-0.134344
-0.392658
-0.11481
-0.380476
-0.0668325
-0.00735088
0.00492801
0.00369816
-0.00496655
0.00513169
0.00366248
0.00529574
0.00355185
0.00528357
0.00341818
0.00517875
0.00336103
0.00501071
0.00332571
0.0047579
0.0031982
0.00440655
0.00300012
0.00397119
0.00282411
0.00346859
0.00268431
0.00290744
0.00253783
0.00229535
0.0023679
0.00164913
0.00219008
0.000990907
0.00202428
0.00033968
0.00187687
-0.000291587
0.00173685
-0.000893617
0.00158786
-0.00146008
0.00142432
-0.00198908
0.00125218
-0.00248255
0.00107831
-0.00294302
0.000904841
-0.00337072
0.000731542
-0.00376269
0.000559428
-0.00411355
0.000391607
-0.00441687
0.000232035
-0.00466641
8.40978e-05
-0.00485726
-5.04944e-05
-0.00498617
-0.000172231
-0.00505145
-0.000283683
-0.00505257
-0.000388345
-0.00498973
-0.000489945
-0.00486366
-0.000591825
-0.00467531
-0.000697602
-0.00442583
-0.000810556
-0.00411675
-0.000934432
-0.00375042
-0.0010719
-0.00333024
-0.00122541
-0.00286097
-0.00139353
-0.00234862
-0.00157147
-0.00180059
-0.00174873
-0.00122461
-0.00191628
-0.000627055
-0.00206969
-1.05579e-05
-0.0022125
0.00062663
-0.00234915
0.00128783
-0.00246962
0.00197329
-0.00255236
0.00267487
-0.0025559
0.0033774
-0.00246665
0.00405871
-0.00226507
0.0046973
-0.00199117
0.00526656
-0.00163257
0.00574298
-0.00124493
0.00609378
-0.000780455
0.00629646
-0.000308644
0.0063225
0.000232726
0.00616584
0.000765428
0.00581306
0.0013647
0.0052718
0.00200352
0.00453988
0.00270709
0.00362245
0.0035253
0.00253905
0.00428257
0.00129312
0.00514553
-3.25964e-05
0.00561304
-0.00141749
0.00602259
-0.00268956
0.00560924
-0.00380722
0.00488334
-0.0045352
0.00321089
-0.00478925
0.000946599
-0.00436687
-0.0018047
-0.00312838
-0.00555533
-0.00121634
-0.00866697
0.00127593
-0.0119892
0.00337929
-0.0116635
0.00423839
-0.00716937
0.00263278
0.00325582
-0.002738
0.0210706
-0.0110928
0.0370704
-0.0205951
0.0452459
-0.0250507
0.0248424
-0.0205376
-0.0177605
-0.0100163
-0.0515353
-0.00249889
-0.0469922
-0.00864501
0.0119399
-0.0267962
0.0722914
-0.0444166
0.0789586
-0.052115
0.0403945
-0.0453018
-0.0278032
-0.0330792
-0.0621028
-0.0307901
-0.0243429
-0.0428611
0.0376561
-0.0670226
0.0931708
-0.099025
0.138233
-0.123997
0.116906
-0.132371
0.045988
-0.129312
-0.0100947
-0.125702
-0.0191072
-0.128191
0.00312928
-0.138877
0.0379611
-0.154425
0.0608517
-0.171706
0.076842
-0.178267
0.0434243
-0.161402
-0.054253
-0.119241
-0.177767
-0.0714317
-0.227395
-0.0430545
-0.177017
-0.0555105
-0.0226523
-0.117062
0.184957
-0.22175
0.3792
-0.350896
0.520247
-0.470501
0.503252
-0.56687
0.427675
-0.62985
0.284998
-0.654261
0.121577
-0.650049
-0.00571631
-0.618063
-0.128366
-0.571938
-0.184181
-0.531442
-0.175697
-0.494835
-0.148182
-0.480672
-0.0866764
-0.00819692
0.00505056
0.00377837
-0.00511134
0.0052556
0.00376665
0.00543614
0.00370789
0.00546191
0.00362093
0.00540485
0.00356829
0.00529276
0.0035249
0.0051123
0.00342453
0.00485401
0.00328277
0.00453272
0.00316074
0.00416124
0.00306612
0.00373801
0.00296545
0.0032563
0.0028475
0.00271933
0.00272025
0.00214052
0.00259525
0.00153438
0.00247863
0.000911466
0.0023621
0.000280598
0.00222773
-0.000349099
0.00206632
-0.000969832
0.00188325
-0.00157655
0.00168792
-0.00216556
0.00148511
-0.00273207
0.00127587
-0.00326899
0.00106174
-0.00376734
0.0008464
-0.00421731
0.000634505
-0.00460955
0.000430248
-0.00493628
0.000236274
-0.00519184
5.29909e-05
-0.00537254
-0.000121717
-0.00547601
-0.000291274
-0.0055008
-0.00045946
-0.00544611
-0.0006295
-0.00531162
-0.000804989
-0.00509745
-0.000989246
-0.0048043
-0.00118634
-0.00443395
-0.00139901
-0.00398943
-0.00162979
-0.00347528
-0.00187675
-0.0028973
-0.00213423
-0.00226266
-0.00238969
-0.0015793
-0.00263164
-0.000854624
-0.00285341
-9.32246e-05
-0.00305772
0.000704506
-0.00324961
0.00153995
-0.00341691
0.00241168
-0.00353356
0.00330843
-0.00354663
0.00421027
-0.00343684
0.00508762
-0.00317665
0.00591176
-0.00281444
0.0066478
-0.00233393
0.00726575
-0.0018042
0.0077242
-0.00116516
0.00799413
-0.000502818
0.00803885
0.000258451
0.00784829
0.00101988
0.00740576
0.00186822
0.00671911
0.0027662
0.00579081
0.0037316
0.00463065
0.00482069
0.00327528
0.00579709
0.00173808
0.00686583
0.000133279
0.00739108
-0.00150537
0.0077997
-0.00296827
0.00714363
-0.00420338
0.00607418
-0.0049521
0.00382783
-0.00512858
0.000869928
-0.00454882
-0.00262919
-0.00309139
-0.00725504
-0.000986818
-0.0109418
0.00160389
-0.0146596
0.00357297
-0.0136945
0.00395287
-0.00741354
0.00151351
0.00607244
-0.00505734
0.0283272
-0.0146216
0.0475417
-0.0250214
0.0562392
-0.0295688
0.0294026
-0.0243898
-0.023613
-0.0133182
-0.0635606
-0.00636008
-0.054662
-0.0146308
0.0200306
-0.0355998
0.0934949
-0.0550472
0.0985557
-0.0631302
0.0482539
-0.0556336
-0.0359619
-0.043155
-0.0751048
-0.0425455
-0.0250286
-0.0580768
0.053966
-0.0871509
0.125172
-0.12349
0.17609
-0.151058
0.145583
-0.159823
0.0555439
-0.156088
-0.0135639
-0.152271
-0.0228269
-0.155721
0.00667795
-0.168664
0.0512466
-0.186767
0.0790972
-0.205827
0.0957088
-0.211714
0.0487392
-0.19137
-0.0757081
-0.14457
-0.225943
-0.0942009
-0.278649
-0.0690214
-0.202852
-0.0916935
2.95221e-05
-0.170057
0.26508
-0.295648
0.505739
-0.445841
0.672917
-0.583316
0.642604
-0.692882
0.53885
-0.764509
0.35689
-0.792949
0.150509
-0.788896
-0.0107042
-0.752636
-0.16569
-0.699963
-0.236038
-0.652738
-0.223812
-0.611306
-0.18613
-0.595029
-0.109089
-0.00973131
0.00517633
0.00387468
-0.00525671
0.00539069
0.00387203
0.00558076
0.00384867
0.00563369
0.00379658
0.00560328
0.00375115
0.00551333
0.00370557
0.00536373
0.00362597
0.00515627
0.00352362
0.00490852
0.00343612
0.00463303
0.00336781
0.00432284
0.00329922
0.00396592
0.00322329
0.00355647
0.00314379
0.00309871
0.00306418
0.00259943
0.00298923
0.0020625
0.00291328
0.00149046
0.0028177
0.000887813
0.00268855
0.00026114
0.0025272
-0.000382607
0.00234217
-0.00103642
0.0021391
-0.00169196
0.00191965
-0.0023386
0.00168546
-0.0029637
0.00144036
-0.00355356
0.00118937
-0.00409462
0.000937148
-0.00457472
0.000687187
-0.00498407
0.000441104
-0.00531518
0.000197786
-0.00556226
-4.56584e-05
-0.00572061
-0.000292777
-0.00578637
-0.000546359
-0.0057565
-0.000809593
-0.00562881
-0.00108539
-0.00540201
-0.0013778
-0.00507622
-0.00168932
-0.00465311
-0.00202228
-0.0041361
-0.00237399
-0.00352988
-0.00273796
-0.0028405
-0.00309958
-0.00207508
-0.00344454
-0.00124134
-0.0037628
-0.000345616
-0.0040547
0.000609231
-0.00432509
0.00162233
-0.00455977
0.00269093
-0.00472906
0.00380132
-0.00476737
0.00492929
-0.00464799
0.00603697
-0.00433135
0.00708683
-0.00387397
0.00803342
-0.00325399
0.0088387
-0.00255675
0.00945055
-0.00170726
0.00983148
-0.000810318
0.00993383
0.00022574
0.00974129
0.0012773
0.00923206
0.00244158
0.00841302
0.00366737
0.00729153
0.00495857
0.00588182
0.00637818
0.00424084
0.00761202
0.00239277
0.00891282
0.000489055
0.00948297
-0.0014227
0.00986185
-0.00308992
0.00888964
-0.00445068
0.0073909
-0.00522343
0.0044636
-0.00532384
0.000706013
-0.00459974
-0.00360829
-0.00295536
-0.00914998
-0.000731568
-0.0133388
0.0018422
-0.0173102
0.00352542
-0.0154349
0.00326293
-0.00700131
-0.000118726
0.0098574
-0.00790834
0.0368419
-0.0185649
0.0591519
-0.029716
0.0680111
-0.0343625
0.034058
-0.0287862
-0.0299027
-0.0176485
-0.0757033
-0.0116463
-0.0614197
-0.0221528
0.0303373
-0.0458442
0.117431
-0.0669664
0.119833
-0.0754949
0.0565586
-0.0677115
-0.0444078
-0.0554385
-0.0879297
-0.0569602
-0.023596
-0.0768485
0.0746427
-0.109809
0.157951
-0.150607
0.218447
-0.180413
0.176566
-0.189339
0.0653078
-0.184719
-0.0179048
-0.180469
-0.026983
-0.18466
0.0109574
-0.199745
0.0666762
-0.220418
0.0999008
-0.241386
0.116461
-0.246948
0.0536984
-0.223759
-0.100061
-0.17334
-0.277813
-0.121423
-0.331509
-0.100477
-0.224519
-0.133943
0.0334383
-0.229491
0.362431
-0.376235
0.653503
-0.548035
0.847318
-0.704472
0.80102
-0.828627
0.664713
-0.910521
0.439051
-0.944919
0.185432
-0.943142
-0.0134737
-0.90374
-0.206214
-0.844953
-0.293937
-0.789893
-0.279805
-0.742653
-0.229628
-0.723903
-0.13448
-0.0126196
0.00528645
0.00395812
-0.00534842
0.00550689
0.00399192
0.00570619
0.00398519
0.0057835
0.00395164
0.00577595
0.00391449
0.00570168
0.00387359
0.00557012
0.00381285
0.00539203
0.00373977
0.00518684
0.00367555
0.00496692
0.00362331
0.0047271
0.00357524
0.00445638
0.00352784
0.00414787
0.0034819
0.00380042
0.0034372
0.00341526
0.00339763
0.00299129
0.0033603
0.00252493
0.00330804
0.00201339
0.00322424
0.00145697
0.00310546
0.000858873
0.00295663
0.000224229
0.00278191
-0.000439634
0.0025822
-0.00112248
0.0023581
-0.00181122
0.00211238
-0.00249077
0.00184922
-0.00314502
0.00157259
-0.00375812
0.00128567
-0.00431581
0.000990683
-0.00480593
0.000687447
-0.00521797
0.00037376
-0.00554248
4.63862e-05
-0.00577086
-0.000296917
-0.0058955
-0.000658653
-0.00591003
-0.00104086
-0.00580938
-0.00144714
-0.00559028
-0.00187927
-0.00525138
-0.00233909
-0.00479338
-0.00282274
-0.00421838
-0.00332279
-0.00352981
-0.00382259
-0.00273236
-0.00430481
-0.00183239
-0.00475493
-0.000836874
-0.00516887
0.000249225
-0.0055498
0.00142275
-0.00588116
0.00268019
-0.0061312
0.00400681
-0.00622129
0.00537572
-0.00611575
0.00674107
-0.0057576
0.00805538
-0.00520981
0.00926038
-0.0044421
0.0103081
-0.00355927
0.0111336
-0.0024685
0.0116887
-0.0012957
0.0119114
7.07668e-05
0.0117759
0.0014779
0.0112522
0.00303231
0.0103436
0.00466441
0.00906096
0.00635653
0.00742105
0.00817928
0.00550263
0.0097203
0.00333977
0.0112916
0.00112613
0.0119009
-0.00107715
0.0122285
-0.00296842
0.0108677
-0.00447604
0.00885528
-0.00529367
0.00513924
-0.00534003
0.000476995
-0.00450597
-0.00470759
-0.00272642
-0.0111881
-0.000474348