/*--------------------------------*- C++ -*----------------------------------*\
| =========                 |                                                 |
| \\      /  F ield         | OpenFOAM: The Open Source CFD Toolbox           |
|  \\    /   O peration     | Version:  2412                                  |
|   \\  /    A nd           | Website:  www.openfoam.com                      |
|    \\/     M anipulation  |                                                 |
\*---------------------------------------------------------------------------*/
FoamFile
{
    version     2.0;
    format      ascii;
    arch        "LSB;label=32;scalar=64";
    class       surfaceScalarField;
    location    "0.27";
    object      phi;
}
// * * * * * * * * * * * * * * * * * * * * * * * * * * * * * * * * * * * * * //

dimensions      [0 3 -1 0 0 0 0];

oriented        oriented;

internalField   nonuniform List<scalar> 
24930
(
0.017984
0.0127688
-0.0307476
0.0106132
0.00737082
0.00695923
0.00365395
0.0051816
0.00177763
0.00420877
0.000972834
0.00358542
0.000623349
0.00313922
0.000446205
0.00279951
0.000339704
0.00253019
0.000269316
0.00231019
0.000220009
0.00212632
0.000183868
0.00196985
0.000156464
0.00183474
0.000135116
0.00171662
0.000118117
0.00161229
0.000104332
0.00151931
9.29763e-05
0.00143582
8.34951e-05
0.00136033
7.54853e-05
0.00129168
6.86481e-05
0.00122893
6.27583e-05
0.00117128
5.7643e-05
0.00111811
5.31678e-05
0.00106889
4.92267e-05
0.00102315
4.57352e-05
0.000980526
4.26254e-05
0.000940684
3.98417e-05
0.000903345
3.73389e-05
0.000868265
3.50794e-05
0.000835234
3.30317e-05
0.000804064
3.11697e-05
0.000774592
2.94712e-05
0.000746675
2.79172e-05
0.000720183
2.64917e-05
0.000695002
2.5181e-05
0.000671029
2.39729e-05
0.000648172
2.28573e-05
0.000626346
2.1825e-05
0.000605477
2.08687e-05
0.000585496
1.99808e-05
0.00056634
1.91559e-05
0.000547952
1.83879e-05
0.000530279
1.76727e-05
0.000513274
1.70047e-05
0.000496892
1.63818e-05
0.000481093
1.57991e-05
0.000465837
1.52561e-05
0.000451088
1.4748e-05
0.000436813
1.42749e-05
0.000422981
1.38315e-05
0.000409563
1.34183e-05
0.000396532
1.30307e-05
0.000383863
1.26688e-05
0.000371532
1.23303e-05
0.000359519
1.20126e-05
0.000347802
1.17174e-05
0.000336365
1.14368e-05
0.000325185
1.11793e-05
0.000314256
1.09283e-05
0.000303556
1.07e-05
0.000293089
1.04668e-05
0.000282839
1.02494e-05
0.000272824
1.00149e-05
0.000263043
9.78052e-06
0.000253518
9.52527e-06
0.000244266
9.25237e-06
0.00023529
8.97589e-06
0.000226609
8.68041e-06
0.000218191
8.4186e-06
0.000210008
8.18337e-06
0.000201988
8.0198e-06
0.000193961
8.02583e-06
0.000185831
8.1296e-06
0.000177225
8.60525e-06
0.000168168
9.05607e-06
0.000158438
9.72891e-06
0.000148554
9.88389e-06
0.000139229
9.32566e-06
0.000131593
7.63569e-06
0.000126489
5.10509e-06
0.000122693
3.79658e-06
0.000117491
5.20239e-06
0.000108641
8.85046e-06
9.61665e-05
1.24738e-05
8.47366e-05
1.14286e-05
7.79447e-05
6.79028e-06
7.62852e-05
1.65871e-06
7.70917e-05
-8.07063e-07
7.46057e-05
2.48438e-06
6.60456e-05
8.55831e-06
5.44105e-05
1.16331e-05
4.42319e-05
1.01772e-05
4.21058e-05
2.1267e-06
5.31214e-05
-1.1014e-05
7.52278e-05
-2.21027e-05
0.000101709
-2.64772e-05
0.000127982
-2.62689e-05
0.000151947
-2.39611e-05
0.000176916
-2.49657e-05
0.000203972
-2.70522e-05
0.00023843
-3.44559e-05
0.000281148
-4.27168e-05
0.000333957
-5.28093e-05
0.000383508
-4.95508e-05
0.000418627
-3.51188e-05
0.000427104
-8.48262e-06
0.000413936
1.31642e-05
0.000383894
3.00378e-05
0.000360582
2.33045e-05
0.000360795
-2.17823e-07
0.00039926
-3.84654e-05
0.000495676
-9.64154e-05
0.000617303
-0.000121625
0.000799074
-0.000181771
0.000976542
-0.000177467
0.00120168
-0.000225137
0.00139341
-0.000191734
0.00162515
-0.000231735
0.0018203
-0.00019515
0.00211485
-0.000294541
-0.000360045
0.0337045
0.0163324
-0.0372681
0.0277655
0.0133098
0.0222099
0.00920955
0.0179331
0.00605444
0.014885
0.0040209
0.0127233
0.00278511
0.0111353
0.00203413
0.00991773
0.00155732
0.00895013
0.00123692
0.00815953
0.00101061
0.00749915
0.000844246
0.00693767
0.000717945
0.00645329
0.000619496
0.00603032
0.000541083
0.00565717
0.000477487
0.00532504
0.000425105
0.00502715
0.00038138
0.00475818
0.000344454
0.00451388
0.000312948
0.00429082
0.00028582
0.00408619
0.000262273
0.00389767
0.000241683
0.00372334
0.000223561
0.00356156
0.000207516
0.00341095
0.000193233
0.00327034
0.000180456
0.0031387
0.000168974
0.00301516
0.000158615
0.00289896
0.000149232
0.00278943
0.000140705
0.00268597
0.00013293
0.00258806
0.000125821
0.00249525
0.000119304
0.00240712
0.000113314
0.0023233
0.000107795
0.00224345
0.000102702
0.00216728
9.79919e-05
0.00209452
9.36293e-05
0.00202492
8.95814e-05
0.00195825
8.58217e-05
0.00189432
8.23229e-05
0.00183293
7.90649e-05
0.00177391
7.60248e-05
0.0017171
7.31894e-05
0.00166236
7.05399e-05
0.00160954
6.80691e-05
0.00155853
6.57589e-05
0.0015092
6.36043e-05
0.00146145
6.15864e-05
0.00141516
5.97019e-05
0.00137026
5.79349e-05
0.00132664
5.6282e-05
0.00128424
5.47335e-05
0.00124297
5.32788e-05
0.00120277
5.19199e-05
0.00116357
5.06315e-05
0.00112532
4.94354e-05
0.00108797
4.82797e-05
0.00105146
4.72079e-05
0.00101579
4.61324e-05
0.000980928
4.51128e-05
0.000946904
4.40375e-05
0.000913717
4.29674e-05
0.000881425
4.18158e-05
0.000850051
4.06258e-05
0.000819619
3.94064e-05
0.000790125
3.81742e-05
0.000761492
3.70515e-05
0.000733574
3.61024e-05
0.000706151
3.5443e-05
0.000678709
3.54686e-05
0.000650896
3.59428e-05
0.000621738
3.77643e-05
0.000591294
3.94999e-05
0.000559131
4.18905e-05
0.000527006
4.2007e-05
0.000497013
3.93169e-05
0.000472722
3.19239e-05
0.000455619
2.22057e-05
0.00044177
1.76448e-05
0.000422754
2.42183e-05
0.00039285
3.87535e-05
0.000353724
5.1599e-05
0.0003196
4.55523e-05
0.00029988
2.65093e-05
0.00029543
6.10919e-06
0.000296359
-1.73461e-06
0.000286705
1.21392e-05
0.000260101
3.51654e-05
0.000226041
4.56945e-05
0.000199596
3.6622e-05
0.000200043
1.67962e-06
0.000241481
-5.24544e-05
0.000314221
-9.48447e-05
0.000400638
-0.000112896
0.000484503
-0.000110136
0.000564928
-0.000104388
0.000647386
-0.000107427
0.000740947
-0.000120616
0.000855401
-0.000148912
0.000998042
-0.000185358
0.00116307
-0.00021784
0.00131577
-0.000202242
0.0014174
-0.000136749
0.00144385
-3.49275e-05
0.00140799
4.90266e-05
0.00133845
9.95711e-05
0.00130089
6.08695e-05
0.00135188
-5.12176e-05
0.00152625
-0.000212839
0.00187239
-0.000442563
0.00230529
-0.000554528
0.00289899
-0.000775473
0.00349493
-0.000773407
0.0042094
-0.000939605
0.00483845
-0.000820781
0.00557357
-0.000966853
0.00621015
-0.000831731
0.00714768
-0.00123206
-0.00146255
0.0414769
0.0160255
-0.04117
0.0391879
0.0155987
0.0352577
0.0131398
0.0309702
0.0103419
0.0270542
0.00793689
0.0237642
0.00607512
0.0210891
0.0047093
0.0189198
0.00372658
0.0171418
0.00301495
0.0156623
0.00249004
0.0144125
0.00209407
0.013342
0.00178851
0.0124137
0.00154772
0.0116004
0.00135445
0.010881
0.00119682
0.0102397
0.00106644
0.00966384
0.000957249
0.00914348
0.000864808
0.00867064
0.000785784
0.00823882
0.000717641
0.00784267
0.000658422
0.00747776
0.000606595
0.00714037
0.000560949
0.00682737
0.000520513
0.0065361
0.000484504
0.00626427
0.000452283
0.00600992
0.000423324
0.00577135
0.000397192
0.00554706
0.000373523
0.00533575
0.000352011
0.00513628
0.000332399
0.00494763
0.000314468
0.00476891
0.000298029
0.0045993
0.000282922
0.00443809
0.000269008
0.00428462
0.000256167
0.00413832
0.000244294
0.00399865
0.000233298
0.00386513
0.000223098
0.00373733
0.000213624
0.00361484
0.000204811
0.0034973
0.000196604
0.00338438
0.000188949
0.00327575
0.000181809
0.00317115
0.000175141
0.0030703
0.000168919
0.00297296
0.000163104
0.00287889
0.000157675
0.00278788
0.000152591
0.00269974
0.000147838
0.0026143
0.000143381
0.00253137
0.000139206
0.00245081
0.00013529
0.00237248
0.000131609
0.00229625
0.000128159
0.00222199
0.000124889
0.00214959
0.000121835
0.00207897
0.000118894
0.00201004
0.000116141
0.00194277
0.000113401
0.0018771
0.000110786
0.00181307
0.000108063
0.00175067
0.000105366
0.00168999
0.000102495
0.00163103
9.9587e-05
0.00157383
9.66051e-05
0.00151831
9.3688e-05
0.00146437
9.09989e-05
0.00141166
8.88068e-05
0.00135983
8.72757e-05
0.00130797
8.73275e-05
0.00125548
8.84353e-05
0.00120083
9.2414e-05
0.0011442
9.61253e-05
0.00108512
0.000100973
0.00102681
0.000100315
0.000972778
9.33484e-05
0.000929084
7.56149e-05
0.000897057
5.42315e-05
0.000869631
4.50696e-05
0.000832403
6.14456e-05
0.00077713
9.40256e-05
0.000708462
0.000120266
0.000650699
0.000103314
0.000618039
5.91683e-05
0.000610773
1.33745e-05
0.000610374
-1.33423e-06
0.000591355
3.11601e-05
0.000545481
8.10413e-05
0.000489834
0.000101343
0.000451544
7.49129e-05
0.000462556
-9.33319e-06
0.000544813
-0.000134712
0.00067817
-0.000228201
0.000834636
-0.000269362
0.0009853
-0.0002608
0.00113377
-0.000252856
0.00128587
-0.000259533
0.00146191
-0.000296658
0.00167298
-0.00035998
0.00193373
-0.000446104
0.0022237
-0.000507812
0.00248785
-0.000466387
0.0026582
-0.000307098
0.0027074
-8.41292e-05
0.00265862
9.78022e-05
0.0025754
0.000182793
0.00256473
7.15338e-05
0.00272694
-0.000213439
0.00310799
-0.000593891
0.00378219
-0.00111677
0.00460783
-0.00138017
0.00569296
-0.00186059
0.0067873
-0.00186775
0.0080666
-0.00221889
0.00920619
-0.00196037
0.0105212
-0.00228188
0.0116734
-0.00198392
0.0133362
-0.00289484
-0.00340279
0.0459402
0.0147241
-0.0446388
0.0460251
0.0155138
0.0444475
0.0147175
0.0417244
0.0130649
0.0384811
0.0111802
0.0351763
0.00937991
0.0320778
0.00780784
0.0293
0.00650433
0.026862
0.00545298
0.0247377
0.00461436
0.022886
0.00394579
0.0212649
0.00340954
0.0198374
0.00297528
0.0185721
0.00261975
0.0174434
0.00232546
0.0164306
0.00207926
0.0155166
0.00187127
0.0146874
0.00169394
0.0139317
0.0015415
0.0132399
0.00140945
0.0126041
0.00129426
0.0120175
0.00119315
0.0114746
0.00110386
0.0109705
0.0010246
0.0105011
0.000953893
0.0100629
0.00089053
0.0096527
0.00083351
0.00926789
0.000782002
0.0089061
0.000735308
0.00856528
0.000692839
0.00824358
0.000654097
0.00793939
0.000618655
0.00765127
0.000586151
0.00737792
0.000556269
0.00711819
0.000528739
0.00687103
0.000503325
0.0066355
0.000479822
0.00641075
0.000458052
0.00619599
0.000437855
0.00599052
0.000419095
0.00579369
0.00040164
0.00560491
0.000385386
0.00542363
0.000370226
0.00524935
0.000356085
0.00508161
0.000342878
0.00491998
0.000330553
0.00476405
0.000319031
0.00461346
0.000308269
0.00446786
0.000298188
0.00432694
0.000288756
0.00419042
0.000279906
0.00405801
0.000271608
0.00392949
0.000263817
0.00380461
0.000256484
0.00368317
0.000249596
0.003565
0.000243067
0.00344989
0.000236941
0.00333773
0.000231051
0.00322837
0.000225505
0.00312175
0.000220015
0.00301778
0.000214755
0.00291651
0.000209334
0.00281789
0.000203989
0.00272202
0.000198358
0.00262887
0.000192741
0.00253847
0.000187004
0.00245064
0.000181517
0.0023652
0.000176437
0.00228161
0.000172399
0.00219934
0.000169549
0.00211706
0.000169599
0.00203398
0.000171523
0.00194803
0.000178361
0.00185968
0.000184477
0.00176851
0.00019214
0.00167945
0.000189375
0.00159739
0.000175406
0.00153077
0.000142234
0.00148009
0.000104902
0.00143481
9.03552e-05
0.00137449
0.000121759
0.00128948
0.00017904
0.00118842
0.000221321
0.00110603
0.000185705
0.00106025
0.000104946
0.00104974
2.38814e-05
0.00104644
1.96955e-06
0.00101627
6.13283e-05
0.000950619
0.000146699
0.000875538
0.000176424
0.000831382
0.000119068
0.000862307
-4.02602e-05
0.000996746
-0.000269151
0.00120149
-0.000432942
0.0014389
-0.000506772
0.00166691
-0.000488814
0.00189599
-0.000481931
0.00213169
-0.000495235
0.00240728
-0.000572248
0.00273298
-0.000685685
0.00312991
-0.000843035
0.00355805
-0.000935952
0.00394242
-0.000850749
0.00418714
-0.000551814
0.00426836
-0.000165356
0.00422465
0.000141508
0.00416229
0.000245152
0.00422994
3.87966e-06
0.00457345
-0.000556955
0.00523976
-0.0012602
0.00632812
-0.00220513
0.00763264
-0.00268469
0.00929792
-0.00352588
0.0109734
-0.00354327
0.0129048
-0.00415024
0.0146326
-0.00368818
0.0166165
-0.00426582
0.0183659
-0.00373324
0.0208359
-0.00536489
-0.00628477
0.0494078
0.0135287
-0.0482124
0.050373
0.0145487
0.0503927
0.0146978
0.0493721
0.0140854
0.0475289
0.0130235
0.0451555
0.0117533
0.0425236
0.0104397
0.0398397
0.00918824
0.0372386
0.00805406
0.0347949
0.00705809
0.0325407
0.00619993
0.0304822
0.00546812
0.0286108
0.00484667
0.0269116
0.00431893
0.0253675
0.00386952
0.0239617
0.00348512
0.0226784
0.00315459
0.0215035
0.0028688
0.0204247
0.00262026
0.0194312
0.00240293
0.0185136
0.00221187
0.0176637
0.00204305
0.0168744
0.00189316
0.0161396
0.00175947
0.0154537
0.00163973
0.0148122
0.00153207
0.0142108
0.0014349
0.0136459
0.0013469
0.0131143
0.00126695
0.012613
0.0011941
0.0121396
0.00112753
0.0116917
0.00106654
0.0112673
0.00101054
0.0108646
0.000959
0.0104818
0.00091147
0.0101176
0.000867557
0.0097705
0.000826916
0.0094393
0.000789247
0.00912288
0.000754279
0.00882019
0.000721781
0.0085303
0.000691533
0.00825233
0.000663354
0.00798549
0.000637066
0.00772904
0.000612536
0.00748229
0.000589621
0.00724462
0.000568225
0.00701544
0.000548217
0.00679419
0.000529514
0.00658039
0.00051199
0.00637357
0.000495578
0.0061733
0.000480171
0.0059792
0.000465711
0.0057909
0.000452118
0.00560807
0.000439309
0.00543041
0.000427256
0.00525766
0.00041582
0.00508954
0.000405056
0.00492588
0.000394709
0.00476646
0.000384929
0.00461119
0.000375279
0.00445993
0.000366019
0.00431271
0.000356553
0.00416943
0.000347264
0.00403021
0.000337577
0.00389492
0.000328031
0.00376358
0.000318345
0.00363586
0.000309241
0.00351149
0.0003008
0.00338968
0.000294214
0.00326973
0.000289494
0.0031499
0.000289439
0.00302921
0.00029221
0.00290516
0.000302412
0.00277865
0.000310988
0.00264944
0.000321344
0.00252433
0.000314484
0.00240951
0.000290219
0.00231558
0.000236162
0.0022416
0.000178888
0.0021733
0.000158645
0.00208449
0.000210574
0.00196525
0.000298274
0.00182908
0.000357497
0.00172109
0.000293688
0.00166177
0.000164266
0.00164721
3.84443e-05
0.0016393
9.87496e-06
0.00159666
0.000103977
0.00151176
0.000231597
0.00142094
0.00026724
0.00137861
0.000161399
0.00144034
-0.000101983
0.00163926
-0.000468072
0.00192693
-0.000720611
0.00225692
-0.000836768
0.00257374
-0.000805632
0.00289714
-0.00080533
0.00323156
-0.000829657
0.00362497
-0.000965657
0.00408404
-0.00114475
0.00463529
-0.00139429
0.00521479
-0.00151546
0.00572926
-0.00136522
0.00605705
-0.000879604
0.00618559
-0.000293899
0.00617302
0.000154079
0.00617635
0.000241821
0.00638342
-0.000203195
0.00698731
-0.00116085
0.00802432
-0.00229722
0.00961939
-0.00380021
0.0114931
-0.0045584
0.0138336
-0.0058664
0.0161789
-0.00588852
0.0188577
-0.0068291
0.0212604
-0.00609082
0.0240109
-0.0070163
0.0264504
-0.00617276
0.0298089
-0.00872335
-0.0102088
0.0528682
0.01263
-0.0519695
0.0538975
0.0135194
0.0545824
0.0140128
0.0546527
0.0140151
0.0540557
0.0136205
0.0528606
0.0129484
0.0511966
0.0121037
0.04921
0.0111748
0.0470356
0.0102285
0.0447837
0.00930996
0.0425366
0.00844697
0.0403505
0.00765425
0.0382599
0.0069373
0.0362833
0.00629553
0.0344281
0.00572471
0.0326945
0.00521868
0.0310785
0.00477062
0.0295736
0.00437371
0.0281723
0.00402159
0.0268667
0.0037085
0.0256492
0.00342939
0.0245124
0.00317984
0.0234495
0.00295605
0.0224542
0.00275474
0.0215209
0.00257311
0.0206442
0.00240874
0.0198195
0.00225959
0.0190425
0.00212386
0.0183095
0.00200003
0.0176168
0.00188678
0.0169613
0.00178296
0.0163403
0.00168758
0.0157511
0.00159977
0.0151913
0.00151878
0.0146588
0.00144395
0.0141517
0.00137468
0.0136681
0.00131048
0.0132065
0.00125088
0.0127653
0.0011955
0.0123431
0.00114396
0.0119387
0.00109595
0.0115508
0.00105118
0.0111785
0.00100938
0.0108207
0.000970348
0.0104765
0.000933863
0.0101449
0.000899769
0.00982527
0.000867866
0.00951677
0.000838018
0.00921872
0.000810032
0.0089305
0.000783797
0.00865153
0.00075915
0.00838125
0.000735989
0.00811917
0.000714192
0.00786485
0.000693626
0.00761787
0.000674239
0.00737787
0.000655823
0.00714448
0.000638444
0.00691746
0.00062173
0.0066965
0.000605887
0.00648149
0.00059029
0.00627219
0.000575314
0.00606864
0.000560107
0.00587064
0.000545255
0.0056783
0.000529915
0.00549138
0.000514957
0.00530983
0.000499888
0.00513315
0.000485925
0.00496097
0.00047298
0.00479217
0.000463012
0.00462594
0.000455722
0.00446006
0.000455324
0.00429353
0.000458736
0.00412342
0.000472521
0.00395129
0.000483118
0.00377716
0.000495478
0.0036098
0.000481836
0.00345656
0.000443466
0.00332988
0.000362836
0.00322681
0.000281958
0.00312945
0.000256004
0.00300619
0.000333836
0.00284819
0.000456269
0.0026742
0.000531481
0.00253953
0.000428358
0.00246588
0.000237923
0.00244599
5.83278e-05
0.00243173
2.41379e-05
0.00237591
0.000159798
0.00227353
0.00033398
0.00217234
0.000368434
0.00214128
0.000192456
0.00224576
-0.000206465
0.00252227
-0.00074458
0.00290483
-0.00110317
0.00333973
-0.00127167
0.00375742
-0.00122332
0.00418972
-0.00123763
0.00463857
-0.00127851
0.00516874
-0.00149583
0.00577984
-0.00175585
0.00650342
-0.00211787
0.00724756
-0.00225959
0.00790403
-0.00202169
0.00832763
-0.0013032
0.00852553
-0.000491794
0.0085779
0.000101703
0.00870033
0.000119379
0.00911526
-0.000618123
0.0100642
-0.00210978
0.0115613
-0.00379436
0.0137584
-0.00599728
0.016295
-0.00709506
0.0194101
-0.00898143
0.02252
-0.00899849
0.0260495
-0.0103585
0.029224
-0.00926537
0.0328463
-0.0106386
0.0360822
-0.00940863
0.0404091
-0.0130502
-0.0152678
0.0565909
0.0119425
-0.0559034
0.057445
0.0126652
0.0582424
0.0132155
0.0587701
0.0134875
0.058906
0.0134846
0.0586043
0.0132501
0.0578744
0.0128336
0.0567642
0.0122851
0.0553419
0.0116508
0.053683
0.0109689
0.0518608
0.0102692
0.0499407
0.00957442
0.0479771
0.00890088
0.0460131
0.00825953
0.0440807
0.00765709
0.0422024
0.00709697
0.0403929
0.00658013
0.0386608
0.00610578
0.0370104
0.00567199
0.0354427
0.00527616
0.0339568
0.00491538
0.03255
0.00458662
0.0312191
0.00428693
0.0299603
0.00401353
0.0287696
0.00376382
0.0276429
0.00353545
0.0265762
0.00332628
0.0255657
0.00313439
0.0246076
0.00295807
0.0236986
0.0027958
0.0228354
0.00264621
0.0220148
0.0025081
0.0212342
0.0023804
0.0204908
0.00226215
0.0197823
0.00215251
0.0191062
0.00205072
0.0184606
0.00195609
0.0178435
0.00186805
0.0172529
0.00178603
0.0166873
0.00170956
0.0161451
0.00163818
0.0156248
0.00157152
0.0151249
0.00150919
0.0146444
0.00145091
0.0141819
0.00139637
0.0137363
0.00134533
0.0133067
0.00129752
0.0128919
0.00125273
0.0124913
0.0012107
0.0121038
0.00117124
0.0117289
0.00113413
0.0113656
0.00109921
0.0110135
0.00106631
0.0106719
0.00103521
0.0103403
0.00100585
0.0100182
0.000977911
0.0097052
0.000951486
0.00940088
0.000926049
0.00910488
0.00090188
0.00881705
0.000878124
0.00853706
0.000855306
0.00826489
0.000832267
0.00800028
0.000809867
0.00774327
0.000786929
0.00749345
0.000764771
0.00725073
0.000742609
0.00701434
0.000722316
0.0067838
0.000703513
0.00655765
0.000689164
0.00633498
0.000678401
0.00611307
0.00067723
0.00589106
0.000680745
0.00566564
0.00069794
0.00543924
0.000709513
0.00521218
0.000722544
0.00499531
0.000698703
0.00479681
0.000641966
0.0046307
0.000528941
0.00449154
0.000421115
0.00435807
0.000389472
0.0041939
0.000498008
0.00399249
0.000657674
0.00377795
0.000746023
0.00361522
0.000591085
0.00352593
0.00032721
0.00349903
8.52288e-05
0.0034768
4.63708e-05
0.00340787
0.00022873
0.00329111
0.000450736
0.00318656
0.000472985
0.00317784
0.000201175
0.00333803
-0.000366654
0.00370566
-0.00111221
0.00419529
-0.0015928
0.00474781
-0.00182418
0.00527865
-0.00175417
0.0058347
-0.00179367
0.00641349
-0.0018573
0.00709915
-0.00218149
0.00788012
-0.00253682
0.00879347
-0.00303123
0.00971568
-0.00318179
0.0105286
-0.00283457
0.011065
-0.00183968
0.0113608
-0.000787563
0.0115185
-5.59684e-05
0.0118197
-0.000181836
0.0125145
-0.00131294
0.013895
-0.00349025
0.0159419
-0.00584131
0.0188363
-0.00889164
0.0221303
-0.0103891
0.0261214
-0.0129726
0.0300968
-0.0129739
0.0345865
-0.0148482
0.0386412
-0.0133201
0.0432462
-0.0152435
0.0473977
-0.0135602
0.0527714
-0.0184239
-0.0215418
0.0605988
0.0113789
-0.0600352
0.0612838
0.0119802
0.0619991
0.0125002
0.0626218
0.0128647
0.0630546
0.0130518
0.0632335
0.0130712
0.063123
0.0129441
0.0627126
0.0126954
0.0620126
0.0123508
0.0610477
0.0119338
0.0598522
0.0114647
0.0584657
0.0109609
0.0569295
0.0104371
0.0552836
0.00990545
0.0535648
0.00937588
0.0518055
0.00885626
0.0500331
0.00835262
0.0482695
0.00786937
0.046532
0.00740948
0.0448334
0.0069747
0.043183
0.0065658
0.0415868
0.00618278
0.0400487
0.00582508
0.0385705
0.00549173
0.0371528
0.00518154
0.0357951
0.00489316
0.0344962
0.00462518
0.0332544
0.0043762
0.0320676
0.00414482
0.0309337
0.00392974
0.0298502
0.0037297
0.0288147
0.00354355
0.0278249
0.00337021
0.0268784
0.00320869
0.0259728
0.00305807
0.025106
0.00291753
0.0242758
0.00278628
0.0234802
0.00266366
0.0227172
0.002549
0.021985
0.00244175
0.0212819
0.00234133
0.0206061
0.00224729
0.0199561
0.00215916
0.0193305
0.00207655
0.0187278
0.00199908
0.0181467
0.00192645
0.0175859
0.00185829
0.0170443
0.00179432
0.0165208
0.00173418
0.0160144
0.00167764
0.0155241
0.00162439
0.0150492
0.00157419
0.0145887
0.0015268
0.0141419
0.00148194
0.0137083
0.0014395
0.0132872
0.00139904
0.012878
0.00136068
0.0124803
0.00132371
0.0120937
0.0012885
0.0117179
0.00125392
0.0113525
0.0012207
0.0109975
0.00118731
0.0106523
0.00115498
0.0103172
0.00112212
0.00999129
0.00109063
0.00967454
0.00105936
0.00936585
0.00103101
0.00906462
0.00100474
0.00876898
0.000984804
0.00847796
0.000969416
0.00818841
0.00096678
0.00789972
0.000969439
0.00760828
0.000989385
0.00731762
0.00100017
0.00702833
0.00101183
0.00675339
0.000973639
0.00650145
0.0008939
0.00628778
0.000742613
0.00610415
0.000604741
0.00592649
0.000567131
0.0057144
0.000710098
0.00546475
0.000907322
0.00520665
0.00100412
0.005014
0.000783735
0.00490716
0.000434047
0.0048711
0.000121286
0.00483945
7.80222e-05
0.00475837
0.000309812
0.00463175
0.000577364
0.00453248
0.000572248
0.00455842
0.000175241
0.00478768
-0.000595918
0.00526015
-0.00158468
0.00586889
-0.00220153
0.00655171
-0.00250701
0.00720756
-0.00241001
0.00790162
-0.00248774
0.00862449
-0.00258018
0.00948298
-0.00303998
0.0104497
-0.00350357
0.0115693
-0.00415079
0.0126832
-0.00429567
0.0136696
-0.00382101
0.0143401
-0.00251016
0.0147677
-0.00121516
0.0150744
-0.000362713
0.0156161
-0.000723475
0.0166608
-0.00235773
0.0185551
-0.00538452
0.021237
-0.0085232
0.0249193
-0.0125739
0.0290629
-0.0145328
0.0340307
-0.0179403
0.0389771
-0.0179203
0.044541
-0.0204121
0.0495955
-0.0183746
0.055297
-0.020945
0.060495
-0.0187581
0.0669929
-0.0249218
-0.029093
0.0648859
0.0108938
-0.0644008
0.0654518
0.0114143
0.0660601
0.011892
0.0666455
0.0122793
0.0671454
0.0125519
0.0675114
0.0127052
0.0677081
0.0127474
0.0677116
0.0126919
0.0675089
0.0125535
0.0670958
0.0123469
0.066476
0.0120845
0.06566
0.0117768
0.0646637
0.0114334
0.0635069
0.0110623
0.0622122
0.0106706
0.0608037
0.0102647
0.0593057
0.0098506
0.0577416
0.00943347
0.0561331
0.00901799
0.0544996
0.00860821
0.0528579
0.00820748
0.0512222
0.00781848
0.0496041
0.00744325
0.0480126
0.00708321
0.0464548
0.00673928
0.0449361
0.00641195
0.0434599
0.00610132
0.0420289
0.00580723
0.0406444
0.00552934
0.039307
0.00526711
0.0380167
0.00501995
0.0367731
0.00478717
0.0355753
0.00456806
0.0344221
0.00436191
0.0333121
0.004168
0.032244
0.00398564
0.0312162
0.00381414
0.0302269
0.00365288
0.0292747
0.00350123
0.0283578
0.00335862
0.0274747
0.00322448
0.0266237
0.00309832
0.0258032
0.00297962
0.0250118
0.00286797
0.024248
0.00276292
0.0235103
0.00266413
0.0227974
0.00257116
0.022108
0.00248369
0.021441
0.00240126
0.020795
0.00232357
0.0201692
0.00225024
0.0195624
0.00218095
0.0189738
0.00211541
0.0184025
0.00205322
0.0178478
0.00199424
0.0173089
0.0019379
0.0167852
0.00188434
0.0162763
0.00183262
0.0157816
0.00178325
0.0153007
0.00173477
0.0148333
0.00168817
0.0143791
0.00164149
0.0139376
0.00159644
0.0135088
0.00155095
0.0130918
0.00150766
0.0126862
0.00146492
0.0122907
0.00142649
0.0119046
0.0013909
0.0115254
0.00136392
0.0111524
0.00134246
0.0107818
0.00133735
0.0104136
0.00133769
0.0100438
0.00135916
0.00967738
0.00136659
0.00931512
0.00137409
0.00897209
0.00131667
0.00865699
0.001209
0.00838599
0.0010136
0.00814803
0.000842704
0.00791698
0.000798179
0.00764934
0.00097774
0.00734626
0.0012104
0.00704115
0.00130923
0.00681602
0.00100886
0.006689
0.000561074
0.00664123
0.000169049
0.006599
0.000120258
0.00650753
0.000401284
0.00637683
0.000708068
0.00629266
0.000656416
0.00636652
0.000101379
0.00667816
-0.000907557
0.00726888
-0.00217539
0.00800812
-0.00294077
0.00883335
-0.00333224
0.00962474
-0.0032014
0.0104693
-0.00333231
0.0113475
-0.00345837
0.0123931
-0.00408557
0.0135582
-0.00466871
0.0148987
-0.00549123
0.0162176
-0.00561462
0.0173971
-0.00500046
0.0182255
-0.00333857
0.0188215
-0.00181113
0.0193205
-0.00086178
0.0201595
-0.0015625
0.0216157
-0.0038139
0.0240947
-0.00786356
0.0274862
-0.0119147
0.032037
-0.0171247
0.0371165
-0.0196122
0.0431558
-0.0239796
0.049181
-0.0239455
0.055934
-0.027165
0.0621185
-0.0245591
0.0690303
-0.0278568
0.0754121
-0.0251399
0.083111
-0.0326207
-0.0379628
0.0694608
0.0104659
-0.0690329
0.0699449
0.0109302
0.070466
0.0113709
0.0709884
0.0117569
0.0714725
0.0120678
0.0718844
0.0122933
0.0721983
0.0124336
0.0723947
0.0124954
0.0724597
0.0124886
0.0723832
0.0124234
0.0721584
0.0123093
0.0717815
0.0121536
0.0712521
0.0119629
0.0705724
0.011742
0.0697479
0.0114951
0.0687871
0.0112255
0.0677011
0.0109366
0.0665033
0.0106312
0.0652087
0.0103126
0.063833
0.00998392
0.0623922
0.00964827
0.0609019
0.00930877
0.0593768
0.00896834
0.0578304
0.00862965
0.0562746
0.00829509
0.0547198
0.00796669
0.053175
0.00764612
0.0516475
0.00733472
0.0501434
0.00703351
0.0486673
0.0067432
0.0472229
0.00646428
0.0458131
0.00619699
0.0444397
0.00594145
0.0431041
0.00569759
0.0418068
0.00546525
0.0405482
0.00524421
0.0393282
0.00503416
0.0381463
0.00483475
0.037002
0.00464561
0.0358942
0.00446636
0.0348221
0.00429655
0.0337847
0.00413581
0.0327806
0.00398369
0.0318087
0.00383984
0.0308678
0.00370382
0.0299566
0.00357534
0.0290738
0.00345393
0.0282183
0.00333925
0.0273887
0.0032308
0.026584
0.00312825
0.0258031
0.00303115
0.025045
0.00293912
0.0243086
0.00285181
0.0235931
0.00276872
0.0228976
0.00268968
0.0222216
0.00261396
0.0215642
0.00254175
0.0209249
0.00247185
0.0203032
0.00240496
0.0196988
0.00233919
0.019111
0.00227593
0.0185398
0.0022127
0.0179844
0.0021518
0.0174448
0.00209063
0.0169197
0.00203273
0.0164087
0.00197587
0.0159101
0.00192508
0.015423
0.001878
0.0149447
0.00184229
0.0144741
0.00181298
0.0140074
0.00180405
0.0135451
0.00180005
0.013083
0.00182121
0.0126277
0.00182187
0.0121802
0.00182166
0.0117574
0.00173942
0.0113678
0.00159867
0.011028
0.00135339
0.0107242
0.00114645
0.0104294
0.00109302
0.0100978
0.00130933
0.00973553
0.00157266
0.00937922
0.00166553
0.00911817
0.0012699
0.00896751
0.000711739
0.00890504
0.000231517
0.00885127
0.000174029
0.00875185
0.000500702
0.00862387
0.000836052
0.00856545
0.000714841
0.00870058
-3.37573e-05
0.00910729
-0.00131427
0.00982876
-0.00289686
0.0107086
-0.00382061
0.011687
-0.00431061
0.0126221
-0.00413648
0.0136264
-0.00433665
0.0146662
-0.00449819
0.015908
-0.00532738
0.017279
-0.00603971
0.018852
-0.00706418
0.0203882
-0.00715087
0.0217811
-0.00639331
0.0227917
-0.00434916
0.0235911
-0.00261053
0.0243189
-0.0015896
0.0255
-0.00274362
0.0274116
-0.00572549
0.0305266
-0.0109785
0.0346851
-0.0160732
0.0401686
-0.0226082
0.0462593
-0.025703
0.0534531
-0.0311734
0.0606637
-0.0311561
0.0687164
-0.0352178
0.0761683
-0.032011
0.084401
-0.0360895
0.092103
-0.0328419
0.101079
-0.0415962
-0.0481701
0.0743436
0.0100824
-0.0739602
0.0747683
0.0105055
0.0752235
0.0109158
0.0756882
0.0112922
0.0761366
0.0116193
0.0765442
0.0118857
0.0768911
0.0120866
0.0771628
0.0122238
0.0773489
0.0123025
0.077442
0.0123302
0.0774366
0.0123147
0.0773275
0.0122628
0.0771103
0.01218
0.0767814
0.0120709
0.0763376
0.0119389
0.075777
0.0117861
0.0750996
0.011614
0.074307
0.0114238
0.0734031
0.0112165
0.0723941
0.010993
0.0712877
0.0107546
0.0700936
0.0105029
0.0688222
0.0102397
0.067485
0.00996686
0.0660935
0.00968658
0.0646592
0.00940102
0.063193
0.00911232
0.0617052
0.00882254
0.0602051
0.00853357
0.0587012
0.00824712
0.0572008
0.00796468
0.0557102
0.00768753
0.0542349
0.00741674
0.0527794
0.00715316
0.0513472
0.00689745
0.0499412
0.00665014
0.0485638
0.00641156
0.0472166
0.00618198
0.0459007
0.00596148
0.044617
0.00575012
0.0433657
0.00554784
0.0421469
0.00535455
0.0409606
0.00517005
0.0398062
0.00499422
0.0386833
0.00482677
0.0375911
0.00466754
0.0365288
0.00451617
0.0354957
0.0043724
0.0344907
0.00423576
0.033513
0.00410592
0.0325618
0.00398243
0.031636
0.00386488
0.0307349
0.00375293
0.0298576
0.00364594
0.0290035
0.0035438
0.0281719
0.00344556
0.0273622
0.00335152
0.0265738
0.00326017
0.0258063
0.00317247
0.0250595
0.00308605
0.0243326
0.00300279
0.0236257
0.0029196
0.0229379
0.0028396
0.0222691
0.00275949
0.0216178
0.00268398
0.0209836
0.0026101
0.0203642
0.00254445
0.0197587
0.00248352
0.0191638
0.00243716
0.0185789
0.00239794
0.0179994
0.0023835
0.0174268
0.00237261
0.016857
0.00239101
0.0162983
0.00238062
0.0157515
0.00236843
0.0152358
0.00225514
0.0147584
0.00207602
0.0143367
0.00177517
0.0139541
0.001529
0.0135838
0.00146334
0.0131789
0.00171418
0.0127509
0.00200073
0.0123382
0.0020782
0.0120367
0.00157143
0.011858
0.000890369
0.0117774
0.000312175
0.0117112
0.00024018
0.0116066
0.000605318
0.0114887
0.000953968
0.0114668
0.00073671
0.0116759
-0.000242838
0.0121888
-0.0018272
0.0130519
-0.00375993
0.0140804
-0.00484904
0.0152202
-0.0054505
0.0163035
-0.00521977
0.0174718
-0.00550495
0.0186724
-0.00569877
0.0201116
-0.00676661
0.0216882
-0.00761633
0.0235003
-0.00887622
0.025263
-0.00891363
0.0268879
-0.0080182
0.0281016
-0.00556283
0.0291322
-0.00364114
0.0301115
-0.00256889
0.0316574
-0.00428955
0.0340425
-0.00811057
0.0378156
-0.0147517
0.0427748
-0.0210324
0.0492316
-0.0290649
0.056393
-0.0328644
0.0648058
-0.0395862
0.0733004
-0.0396507
0.0827532
-0.0446706
0.0916109
-0.0408687
0.10127
-0.0457486
0.110418
-0.0419896
0.120742
-0.0519202
-0.0597126
0.0795556
0.00973408
-0.0792072
0.0799357
0.0101253