/*--------------------------------*- C++ -*----------------------------------*\
| =========                 |                                                 |
| \\      /  F ield         | OpenFOAM: The Open Source CFD Toolbox           |
|  \\    /   O peration     | Version:  2412                                  |
|   \\  /    A nd           | Website:  www.openfoam.com                      |
|    \\/     M anipulation  |                                                 |
\*---------------------------------------------------------------------------*/
FoamFile
{
    version     2.0;
    format      ascii;
    arch        "LSB;label=32;scalar=64";
    class       volVectorField;
    location    "0.27";
    object      U;
}
// * * * * * * * * * * * * * * * * * * * * * * * * * * * * * * * * * * * * * //

dimensions      [0 1 -1 0 0 0 0];

internalField   nonuniform List<vector> 
12600
(
(18.7371 1.27296e-21 2.09222)
(11.6242 1.61439e-20 0.450252)
(7.35606 1.89787e-20 -0.478517)
(5.0943 0 -0.709941)
(3.98138 1.7163e-20 -0.683077)
(3.34063 1.59877e-20 -0.608379)
(2.89933 0 -0.540688)
(2.56803 0 -0.485248)
(2.30833 -4.81124e-20 -0.439792)
(2.09812 0 -0.402049)
(1.92367 2.0195e-20 -0.370174)
(1.77607 1.8499e-20 -0.34284)
(1.6492 -1.6954e-20 -0.3191)
(1.53873 0 -0.298256)
(1.44146 -1.42226e-20 -0.279785)
(1.35501 0 -0.263283)
(1.27756 4.78386e-20 -0.248437)
(1.20768 0 -0.234994)
(1.14422 -2.00442e-20 -0.222755)
(1.08629 -1.83433e-20 -0.211556)
(1.03314 1.6756e-20 -0.201262)
(0.984167 5.52583e-24 -0.191761)
(0.938855 0 -0.182959)
(0.896784 -2.53372e-20 -0.174778)
(0.857591 0 -0.16715)
(0.820972 0 -0.160017)
(0.786661 -1.88423e-20 -0.15333)
(0.754432 0 -0.147046)
(0.724086 3.95042e-24 -0.141126)
(0.695451 1.36747e-20 -0.135539)
(0.668375 1.21973e-20 -0.130254)
(0.642723 1.08285e-20 -0.125246)
(0.618377 -9.56059e-21 -0.120493)
(0.595231 -1.67734e-20 -0.115974)
(0.57319 -1.46006e-20 -0.11167)
(0.552169 1.25804e-20 -0.107565)
(0.532093 0 -0.103645)
(0.51289 -9.01708e-21 -0.0998963)
(0.4945 0 -0.0963061)
(0.476865 5.97256e-21 -0.0928637)
(0.459933 0 -0.0895589)
(0.443657 1.7179e-23 -0.0863826)
(0.427993 0 -0.0833264)
(0.412902 1.56028e-23 -0.0803824)
(0.398349 4.86719e-22 -0.0775437)
(0.384297 1.24788e-21 -0.0748035)
(0.370716 -2.85791e-21 -0.0721556)
(0.357576 0 -0.0695943)
(0.344851 0 -0.0671143)
(0.332514 -6.8278e-21 -0.0647107)
(0.320544 -1.58165e-20 -0.0623791)
(0.308919 -1.77616e-20 -0.0601152)
(0.297619 1.86683e-23 -0.0579154)
(0.286626 -2.1045e-20 -0.0557759)
(0.275924 0 -0.0536937)
(0.265498 2.36658e-20 -0.0516656)
(0.255333 2.47359e-20 -0.0496892)
(0.245417 2.56533e-20 -0.0477618)
(0.235741 0 -0.0458818)
(0.226294 0 -0.0440471)
(0.217082 0 -0.0422584)
(0.20809 -5.64043e-20 -0.0405131)
(0.199348 0 -0.0388168)
(0.19083 0 -0.0371641)
(0.182602 1.16384e-19 -0.0355675)
(0.1746 0 -0.0340146)
(0.166927 0 -0.032525)
(0.159456 0 -0.0310741)
(0.152316 -1.17014e-19 -0.0296868)
(0.145291 1.1651e-19 -0.0283216)
(0.138514 1.15752e-19 -0.0270049)
(0.131632 2.26055e-23 -0.0256686)
(0.124802 -1.13538e-19 -0.0243445)
(0.117478 0 -0.0229275)
(0.110156 1.10602e-19 -0.0215142)
(0.102159 0 -0.0199744)
(0.0949352 0 -0.0185848)
(0.0878376 0 -0.0172324)
(0.0832969 3.32952e-23 -0.0163876)
(0.0793359 2.05788e-19 -0.0156256)
(0.0765877 2.02218e-19 -0.0150586)
(0.0706927 -1.98045e-19 -0.0138778)
(0.0635853 -1.93589e-19 -0.0125188)
(0.0538639 0 -0.010664)
(0.0486963 0 -0.00971894)
(0.0444566 3.65709e-19 -0.00896455)
(0.0457901 -7.18826e-19 -0.00921735)
(0.0436741 7.0405e-19 -0.00876215)
(0.0413485 3.43715e-19 -0.00826023)
(0.0328024 0 -0.0066184)
(0.02735 -6.5658e-19 -0.00561947)
(0.0210553 3.22503e-19 -0.00450741)
(0.0247363 -3.17934e-19 -0.00526454)
(0.0324842 6.2817e-19 -0.00677812)
(0.0463124 0 -0.00944125)
(0.0585987 0 -0.0117724)
(0.0700242 0 -0.0139248)
(0.0809208 0 -0.0160148)
(0.0905842 0 -0.0178714)
(0.104771 0 -0.0206373)
(0.118163 -5.32859e-19 -0.023234)
(0.141383 -1.03567e-18 -0.02771)
(0.159002 -9.99096e-19 -0.0310034)
(0.179733 0 -0.0348523)
(0.180034 0 -0.0347493)
(0.180418 0 -0.0348028)
(0.159564 -8.19087e-19 -0.0308648)
(0.150722 -1.57162e-18 -0.0293143)
(0.133819 7.62952e-19 -0.0262623)
(0.14628 0 -0.0288654)
(0.158192 -1.50023e-18 -0.0314653)
(0.208249 0 -0.0412326)
(0.241527 -1.50105e-18 -0.0478043)
(0.320186 1.48707e-18 -0.0628484)
(0.355143 -1.4737e-18 -0.0696022)
(0.448601 -1.43805e-18 -0.0873596)
(0.464175 1.40077e-18 -0.0903253)
(0.569677 -9.20728e-23 -0.11041)
(0.559524 1.29547e-18 -0.108505)
(0.72412 0 -0.139948)
(29.1479 -1.28507e-21 4.02316)
(25.1104 0 1.8563)
(20.2513 -1.92085e-20 -0.215663)
(16.0868 0 -1.21421)
(13.1286 -1.73911e-20 -1.50982)
(11.0866 -3.05507e-20 -1.52089)
(9.61484 -1.4146e-20 -1.44332)
(8.50314 0 -1.34577)
(7.63052 3.56277e-22 -1.25045)
(6.92418 -2.20186e-20 -1.16343)
(6.3385 2.02246e-20 -1.0854)
(5.84346 1.85749e-20 -1.01562)
(5.41845 -1.70577e-20 -0.953104)
(5.04881 1.56616e-20 -0.896864)
(4.7238 2.8808e-20 -0.846045)
(4.43533 0 -0.799911)
(4.17723 -6.49391e-23 -0.757845)
(3.94465 2.21688e-20 -0.719325)
(3.73376 2.03359e-20 -0.683913)
(3.54149 0 -0.651236)
(3.36531 0 -0.620982)
(3.20318 1.54994e-20 -0.59288)
(3.05336 0 -0.5667)
(2.91443 1.28441e-20 -0.542243)
(2.78516 -2.33153e-20 -0.519339)
(2.66451 0 -0.497836)
(2.55161 1.90973e-20 -0.477605)
(2.44567 0 -0.458531)
(2.34604 -1.54666e-20 -0.440512)
(2.25212 -2.77033e-20 -0.423458)
(2.16341 -2.47058e-20 -0.40729)
(2.07946 -1.09604e-20 -0.391936)
(1.99986 9.67438e-21 -0.377333)
(1.92426 3.39537e-20 -0.363423)
(1.85234 2.95489e-20 -0.350155)
(1.78381 0 -0.337482)
(1.71843 0 -0.325362)
(1.65595 -1.69855e-23 -0.313755)
(1.59617 0 -0.302627)
(1.53889 -6.02954e-21 -0.291946)
(1.48395 0 -0.281682)
(1.43118 -6.83718e-21 -0.271807)
(1.38044 0 -0.262298)
(1.3316 -2.43351e-21 -0.253132)
(1.28454 0 -0.244286)
(1.23913 -1.25654e-21 -0.235742)
(1.19528 0 -0.227481)
(1.15289 0 -0.219486)
(1.11187 5.62989e-21 -0.211741)
(1.07213 0 -0.204231)
(1.03361 0 -0.196944)
(0.996227 0 -0.189867)
(0.959926 1.95487e-20 -0.182988)
(0.92464 4.21677e-20 -0.176297)
(0.890323 0 -0.169785)
(0.856919 0 -0.163443)
(0.82439 -2.47121e-20 -0.157263)
(0.79269 -2.56521e-20 -0.151237)
(0.761796 0 -0.145361)
(0.73167 0 -0.13963)
(0.702324 0 -0.134044)
(0.673714 0 -0.128599)
(0.645924 -5.69027e-20 -0.123308)
(0.618866 5.74529e-20 -0.118156)
(0.592725 -1.1572e-19 -0.113179)
(0.567301 0 -0.108337)
(0.54289 0 -0.103688)
(0.519089 0 -0.0991522)
(0.496291 4.68624e-23 -0.0948051)
(0.473811 -1.15396e-19 -0.0905136)
(0.452093 -1.1454e-19 -0.0863591)
(0.430034 2.26871e-19 -0.0821338)
(0.408215 3.35055e-23 -0.0779383)
(0.385005 -1.10623e-19 -0.0734778)
(0.362035 -1.09028e-19 -0.0690554)
(0.337327 0 -0.0643227)
(0.315263 0 -0.0601244)
(0.293733 0 -0.0560783)
(0.27976 2.0507e-19 -0.0535133)
(0.266783 0 -0.0510763)
(0.257052 0 -0.0491539)
(0.237737 1.9383e-19 -0.0453138)
(0.216024 1.89267e-19 -0.0410467)
(0.187562 0 -0.0356307)
(0.173282 0 -0.0330523)
(0.160995 0 -0.0308519)
(0.164542 6.99612e-19 -0.031617)
(0.15655 -6.62694e-23 -0.0299685)
(0.149103 3.33759e-19 -0.0283734)
(0.123994 -3.2552e-19 -0.0234775)
(0.109935 6.36245e-19 -0.0208337)
(0.0940021 3.12109e-19 -0.0179936)
(0.108274 6.1485e-19 -0.0211331)
(0.132669 0 -0.0261273)
(0.174294 0 -0.0342257)
(0.210514 0 -0.0411314)
(0.244782 0 -0.0476137)
(0.278186 5.56186e-19 -0.0540172)
(0.308359 0 -0.0598389)
(0.352814 0 -0.0685188)
(0.394083 -5.10836e-19 -0.076603)
(0.463653 4.96044e-19 -0.0901268)
(0.512685 1.91219e-18 -0.0994195)
(0.570761 -9.15875e-19 -0.11022)
(0.567556 0 -0.10906)
(0.569748 0 -0.109128)
(0.5119 0 -0.0978024)
(0.498009 7.48488e-19 -0.0951697)
(0.461193 -7.26104e-19 -0.0883982)
(0.517512 0 -0.0997462)
(0.564765 2.85033e-18 -0.109661)
(0.728611 1.42032e-18 -0.141392)
(0.832039 2.84732e-18 -0.161991)
(1.07348 0 -0.208175)
(1.17514 0 -0.228187)
(1.45636 -1.36068e-18 -0.281658)
(1.4965 0 -0.289736)
(1.81513 -1.27447e-18 -0.350391)
(1.77705 -1.22343e-18 -0.344064)
(2.2652 0 -0.438243)
(31.892 0 3.89075)
(31.0814 0 2.81413)
(28.5555 -1.30272e-20 1.01947)
(25.2159 0 -0.38672)
(21.9671 0 -1.23034)
(19.1967 1.51843e-20 -1.65501)
(16.9406 1.33964e-20 -1.82331)
(15.1172 0 -1.85496)
(13.6309 4.21127e-22 -1.82131)
(12.4018 2.08596e-20 -1.75888)
(11.3693 -3.81118e-20 -1.68517)
(10.4893 -1.75996e-20 -1.60853)
(9.72956 1.14786e-22 -1.53294)
(9.06624 -1.48406e-20 -1.46027)
(8.48145 -1.36224e-20 -1.39129)
(7.96147 1.24492e-20 -1.32627)
(7.49566 -2.29241e-20 -1.26519)
(7.07559 -2.1008e-20 -1.20789)
(6.69454 0 -1.15416)
(6.34704 0 -1.10375)
(6.02864 1.60543e-20 -1.05642)
(5.73566 1.46553e-20 -1.01192)
(5.46501 0 -0.970025)
(5.2141 0 -0.930537)
(4.98075 2.20927e-20 -0.893259)
(4.76308 0 -0.858019)
(4.55946 -3.61846e-20 -0.824656)
(4.36853 1.63095e-20 -0.793027)
(4.18905 0 -0.763)
(4.01998 1.3126e-20 -0.734457)
(3.86037 1.1706e-20 -0.707289)
(3.70942 0 -0.681397)
(3.56639 -9.17728e-21 -0.656691)
(3.43064 -1.60889e-20 -0.63309)
(3.30157 1.1792e-23 -0.610517)
(3.17868 0 -0.588904)
(3.0615 0 -0.568189)
(2.9496 8.64287e-21 -0.548311)
(2.8426 0 -0.529219)
(2.74015 0 -0.510862)
(2.64193 0 -0.493195)
(2.54767 0 -0.476176)
(2.45708 0 -0.459766)
(2.36994 0 -0.443927)
(2.28601 0 -0.428628)
(2.2051 1.14754e-21 -0.413835)
(2.12701 -2.66972e-21 -0.39952)
(2.05156 0 -0.385653)
(1.97859 -5.3264e-21 -0.372212)
(1.90796 0 -0.359171)
(1.83953 0 -0.346511)
(1.77316 1.67841e-20 -0.334209)
(1.70876 0 -0.322249)
(1.64621 -1.99221e-20 -0.310612)
(1.58541 2.11973e-20 -0.299285)
(1.52628 0 -0.288253)
(1.46875 2.33584e-20 -0.277503)
(1.41273 0 -0.267024)
(1.35818 0 -0.256809)
(1.30504 0 -0.246849)
(1.25332 5.21849e-20 -0.237147)
(1.20294 5.30372e-20 -0.227695)
(1.15403 2.75126e-23 -0.218513)
(1.10644 -1.08477e-19 -0.209579)
(1.06045 2.44252e-23 -0.200943)
(1.01572 0 -0.19254)
(0.97273 0 -0.184459)
(0.930768 -1.09703e-19 -0.176561)
(0.890512 3.75147e-23 -0.16897)
(0.850757 0 -0.161453)
(0.812325 0 -0.154151)
(0.773302 -1.06955e-19 -0.146712)
(0.73483 2.67708e-23 -0.139321)
(0.694167 2.47469e-23 -0.131521)
(0.65425 0 -0.123847)
(0.611784 0 -0.115788)
(0.57416 -1.99041e-19 -0.108762)
(0.53756 1.95961e-19 -0.102081)
(0.5134 0 -0.0978005)
(0.489948 0 -0.0934564)
(0.471568 0 -0.0897545)
(0.437131 0 -0.0827607)
(0.400409 0 -0.0754159)
(0.353653 0 -0.0667377)
(0.331182 0 -0.0629902)
(0.310865 0 -0.0595368)
(0.315996 -6.57679e-19 -0.0607162)
(0.300486 -3.21704e-19 -0.0574375)
(0.287679 -3.1369e-19 -0.0545478)
(0.246558 3.05884e-19 -0.0465169)
(0.226294 -5.97629e-19 -0.0428962)
(0.203547 -2.93162e-19 -0.0391851)
(0.231443 -2.88666e-19 -0.0460775)
(0.273525 0 -0.0551046)
(0.343232 0 -0.0687337)
(0.403064 0 -0.0799713)
(0.460419 0 -0.0907252)
(0.517387 -5.21794e-19 -0.10158)
(0.569288 0 -0.111698)
(0.646183 0 -0.126825)
(0.716074 4.78974e-19 -0.140724)
(0.832117 0 -0.163249)
(0.90869 -8.96084e-19 -0.177395)
(1.00133 8.58278e-19 -0.193855)
(0.991368 0 -0.190324)
(0.998468 0 -0.190586)
(0.908904 0 -0.173028)
(0.904125 7.00799e-19 -0.172796)
(0.860329 0 -0.165918)
(0.979822 -6.69101e-19 -0.191061)
(1.07209 -3.14509e-22 -0.21142)
(1.36387 -1.32927e-18 -0.268411)
(1.53978 -2.66375e-18 -0.3041)
(1.95146 0 -0.382497)
(2.1161 1.3051e-18 -0.415121)
(2.58951 1.27275e-18 -0.504119)
(2.64745 1.23863e-18 -0.516025)
(3.18542 0 -0.617342)
(3.1113 1.14395e-18 -0.605989)
(3.9198 0 -0.761563)
(32.4145 0 2.9465)
(32.9826 0 2.76143)
(32.4319 1.2315e-20 1.71752)
(30.7916 0 0.516483)
(28.5412 -1.2362e-20 -0.488669)
(26.1273 2.51464e-20 -1.21174)
(23.8098 0 -1.67499)
(21.7049 -2.19651e-20 -1.93933)
(19.8463 2.10654e-20 -2.06871)
(18.2244 1.90597e-20 -2.11316)
(16.8119 1.79195e-20 -2.1065)
(15.5775 -1.6296e-20 -2.07001)
(14.4929 1.51771e-20 -2.01665)
(13.5338 -2.7685e-20 -1.95425)
(12.6801 0 -1.88754)
(11.9155 -2.34852e-20 -1.81939)
(11.2268 0 -1.75154)
(10.603 0 -1.68506)
(10.0353 0 -1.62054)
(9.51628 1.65677e-20 -1.55833)
(9.03974 -3.44261e-23 -1.4986)
(8.60054 -2.6219e-23 -1.4414)
(8.19434 1.26149e-20 -1.38672)
(7.81744 0 -1.33448)
(7.46666 0 -1.2846)
(7.13929 0 -1.23699)
(6.83298 3.42073e-20 -1.19152)
(6.54569 -6.23616e-24 -1.1481)
(6.27562 0 -1.1066)
(6.02122 0 -1.06692)
(5.78109 0 -1.02895)
(5.55401 0 -0.992598)
(5.33891 1.73588e-20 -0.957767)
(5.13479 0 -0.924368)
(4.94081 -1.32496e-20 -0.892318)
(4.75617 0 -0.861537)
(4.58017 0 -0.831952)
(4.41217 -8.19314e-21 -0.803494)
(4.2516 0 -0.776098)
(4.09793 0 -0.749702)
(3.95068 4.21411e-21 -0.724252)
(3.80941 -6.18654e-21 -0.699693)
(3.67373 0 -0.675976)
(3.54327 -2.24062e-21 -0.653053)
(3.41769 0 -0.630882)
(3.29667 -2.14931e-21 -0.609419)
(3.17993 1.81816e-23 -0.588628)
(3.0672 0 -0.568468)
(2.95824 0 -0.548911)
(2.85281 6.07294e-21 -0.529922)
(2.75074 1.40817e-20 -0.511476)
(2.6518 -3.1669e-20 -0.493542)
(2.55585 0 -0.476099)
(2.4627 -1.87603e-20 -0.459122)
(2.37224 -2.00094e-20 -0.442592)
(2.28432 -2.1064e-20 -0.426489)
(2.19883 -2.20049e-20 -0.410798)
(2.11566 0 -0.395505)
(2.03474 0 -0.380597)
(1.95597 -4.82119e-20 -0.366068)
(1.87937 -9.84181e-20 -0.351917)
(1.80481 -5.00231e-20 -0.338137)
(1.73246 2.95833e-23 -0.324753)
(1.66209 5.11304e-20 -0.311732)
(1.59409 5.14656e-20 -0.299141)
(1.52793 0 -0.286882)
(1.46428 0 -0.275075)
(1.4021 1.03381e-19 -0.263517)
(1.34236 2.06056e-19 -0.25238)
(1.2833 0 -0.241328)
(1.22618 1.01661e-19 -0.230565)
(1.16823 1.00671e-19 -0.219593)
(1.1113 9.95067e-20 -0.208702)
(1.0515 1.96289e-19 -0.197285)
(0.993247 0 -0.186136)
(0.931888 0 -0.174608)
(0.87787 1.87302e-19 -0.164688)
(0.825366 -3.68693e-19 -0.155377)
(0.789987 -1.81538e-19 -0.149359)
(0.754362 0 -0.142863)
(0.725579 0 -0.136939)
(0.674421 0 -0.126344)
(0.622485 0 -0.115865)
(0.557926 0 -0.104152)
(0.528033 0 -0.0996212)
(0.4994 -3.14633e-19 -0.0951519)
(0.505288 6.91238e-23 -0.096553)
(0.480717 3.02029e-19 -0.0912486)
(0.462619 0 -0.0868543)
(0.406364 2.87078e-19 -0.0758208)
(0.382572 2.80464e-19 -0.0718999)
(0.355837 0 -0.0683424)
(0.400158 -2.7073e-19 -0.0796811)
(0.460621 -5.34043e-19 -0.0929876)
(0.558333 0 -0.11222)
(0.641311 0 -0.127636)
(0.721758 0 -0.142653)
(0.803265 -4.89027e-19 -0.158123)
(0.877689 0 -0.172784)
(0.988946 0 -0.1948)
(1.08728 4.48681e-19 -0.214625)
(1.24942 -4.35492e-19 -0.246073)
(1.349 0 -0.264097)
(1.4742 0 -0.285499)
(1.45495 0 -0.278815)
(1.47216 0 -0.280015)
(1.3571 0 -0.257376)
(1.37743 -8.32107e-23 -0.262377)
(1.33863 0 -0.258433)
(1.54055 6.26123e-19 -0.30102)
(1.68497 -1.24769e-18 -0.333653)
(2.11778 0 -0.418371)
(2.36597 3.42645e-22 -0.469522)
(2.95485 0 -0.581231)
(3.1771 -2.54296e-22 -0.625779)
(3.84751 0 -0.750783)
(3.91595 -1.15808e-18 -0.765564)
(4.67945 0 -0.908251)
(4.56191 1.06914e-18 -0.891547)
(5.68318 0 -1.10769)
(32.518 0 2.09313)
(33.2768 0 2.21938)
(33.6251 0 1.74472)
(33.2629 0 0.950928)
(32.2427 1.16688e-20 0.109236)
(30.7713 -9.01771e-22 -0.639897)
(29.0543 0 -1.24105)
(27.2503 2.0732e-20 -1.68504)
(25.4688 0 -1.989)
(23.7761 -3.54788e-20 -2.18114)
(22.2045 0 -2.29004)
(20.7642 1.53845e-20 -2.33968)
(19.4526 0 -2.34837)
(18.2611 2.6139e-20 -2.32934)
(17.1786 -1.1914e-20 -2.29192)
(16.1934 2.20284e-20 -2.24254)
(15.2948 -2.01806e-20 -2.18566)
(14.4727 -1.85378e-20 -2.12432)
(13.7185 0 -2.06066)
(13.0244 -1.56445e-20 -1.9961)
(12.3838 -1.43065e-20 -1.93167)
(11.7908 -2.60929e-20 -1.86802)
(11.2404 -1.19119e-20 -1.80563)
(10.7282 0 -1.74479)
(10.2503 0 -1.68568)
(9.80344 0 -1.62841)
(9.38464 -1.61447e-20 -1.57304)
(8.99131 -1.45578e-20 -1.51957)
(8.62116 0 -1.46799)
(8.27217 0 -1.41826)
(7.94254 1.04526e-20 -1.37033)
(7.63065 0 -1.32414)
(7.33509 1.16469e-24 -1.27963)
(7.05455 -1.43831e-20 -1.23674)
(6.78788 1.25227e-20 -1.19538)
(6.53403 0 -1.15551)
(6.29206 0 -1.11704)
(6.06109 7.73286e-21 -1.07991)
(5.84036 0 -1.04406)
(5.62914 0 -1.00942)
(5.42679 -3.9767e-21 -0.975948)
(5.23271 5.83765e-21 -0.943571)
(5.04634 0 -0.912242)
(4.86719 2.11398e-21 -0.881906)
(4.6948 0 -0.852515)
(4.52872 1.0048e-21 -0.824019)
(4.36858 2.36186e-21 -0.796376)
(4.21399 0 -0.76954)
(4.06464 4.69942e-21 -0.743477)
(3.92019 -5.72712e-21 -0.718146)
(3.78039 -2.65291e-20 -0.693517)
(3.64495 1.49171e-20 -0.669555)
(3.51367 -1.63567e-20 -0.646234)
(3.38629 2.40386e-23 -0.623523)
(3.26266 0 -0.601403)
(3.14256 1.98536e-20 -0.579847)
(3.02587 2.07384e-20 -0.558839)
(2.91241 -2.14846e-20 -0.538361)
(2.80212 2.21401e-20 -0.518401)
(2.69482 4.54225e-20 -0.498951)
(2.59056 4.63411e-20 -0.48001)
(2.48914 -4.70582e-20 -0.461571)
(2.39077 4.76788e-20 -0.44366)
(2.29512 0 -0.426237)
(2.20268 0 -0.409378)
(2.11272 4.85941e-20 -0.392953)
(2.02609 0 -0.377108)
(1.94139 0 -0.361572)
(1.85992 -9.6941e-20 -0.346565)
(1.7793 0 -0.331641)
(1.70132 -9.56477e-20 -0.317076)
(1.62231 -1.89375e-19 -0.302226)
(1.54496 0 -0.287504)
(1.46421 -9.22871e-20 -0.272179)
(1.38614 0 -0.25733)
(1.30462 0 -0.242206)
(1.23321 -1.75974e-19 -0.229356)
(1.16372 1.73241e-19 -0.217416)
(1.1158 4.77332e-23 -0.209559)
(1.06609 0 -0.200594)
(1.02509 0 -0.192004)
(0.955749 0 -0.177419)
(0.888551 -1.57124e-19 -0.163787)
(0.806609 1.53519e-19 -0.149379)
(0.769826 0 -0.144461)
(0.732312 5.90623e-19 -0.139081)
(0.737964 2.89825e-19 -0.140483)
(0.70295 -5.66797e-19 -0.132782)
(0.679889 -2.7623e-19 -0.126832)
(0.609639 -5.38567e-19 -0.113086)
(0.585133 0 -0.109678)
(0.557127 0 -0.107397)
(0.620169 2.53853e-19 -0.124001)
(0.699268 5.00674e-19 -0.141849)
(0.824508 -4.91915e-19 -0.166618)
(0.930038 0 -0.185961)
(1.03323 0 -0.205156)
(1.14009 4.58188e-19 -0.225366)
(1.23719 4.45108e-19 -0.24473)
(1.38438 0 -0.274005)
(1.50987 -4.202e-19 -0.299634)
(1.71741 4.0779e-19 -0.339713)
(1.83504 0 -0.36033)
(1.992 0 -0.385942)
(1.96163 0 -0.375369)
(1.99623 0 -0.378625)
(1.86204 0 -0.352425)
(1.9243 -6.1367e-19 -0.366771)
(1.90039 0 -0.368508)
(2.20295 0 -0.432936)
(2.40328 0 -0.479399)
(2.98883 1.16199e-18 -0.594319)
(3.30629 1.16452e-18 -0.660752)
(4.07902 0 -0.806627)
(4.35202 -1.14079e-18 -0.861894)
(5.22481 0 -1.02302)
(5.29642 -1.08216e-18 -1.03948)
(6.29109 0 -1.22367)
(6.12467 -9.9915e-19 -1.20143)
(7.54619 0 -1.47562)
(32.5909 -5.02276e-21 1.47847)
(33.1749 -6.22688e-21 1.61862)
(33.7023 7.38757e-21 1.42798)
(33.9291 8.3212e-21 0.967252)
(33.7384 0 0.375492)
(33.1417 -9.9686e-21 -0.240316)
(32.2126 0 -0.814372)
(31.0418 1.75283e-20 -1.30966)
(29.7178 1.67649e-20 -1.71077)
(28.317 3.23453e-20 -2.01812)
(26.8987 -1.489e-20 -2.24139)
(25.505 1.39014e-20 -2.39407)
(24.1632 0 -2.49006)
(22.8888 0 -2.542)
(21.6891 1.12323e-20 -2.56049)
(20.5659 -1.14953e-22 -2.55406)
(19.5177 1.76748e-22 -2.52937)
(18.5409 1.36494e-22 -2.49148)
(17.631 0 -2.44423)
(16.7831 0 -2.39051)
(15.9924 0 -2.33246)
(15.2542 2.45182e-20 -2.27171)
(14.564 1.11664e-20 -2.20944)
(13.9178 0 -2.14654)
(13.3119 0 -2.08369)
(12.7427 1.67766e-20 -2.02135)
(12.2074 0 -1.95989)
(11.703 0 -1.89956)
(11.2271 0 -1.84052)
(10.7773 0 -1.78291)
(10.3517 -6.67134e-24 -1.72679)
(9.94832 0 -1.67221)
(9.56552 -1.85523e-24 -1.61919)
(9.20177 1.35582e-20 -1.56771)
(8.85566 2.17446e-24 -1.51777)
(8.52592 0 -1.46934)
(8.2114 0 -1.42238)
(7.91103 0 -1.37685)
(7.62384 0 -1.3327)
(7.34895 0 -1.2899)
(7.08554 0 -1.24839)
(6.83284 0 -1.20811)
(6.59018 -3.7055e-21 -1.16904)
(6.3569 -2.0267e-21 -1.13111)
(6.13242 0 -1.09428)
(5.91619 9.135e-22 -1.0585)
(5.7077 0 -1.02372)
(5.50648 0 -0.9899)
(5.3121 -8.83798e-21 -0.957007)
(5.12416 0 -0.924994)
(4.9423 1.24786e-20 -0.893833)
(4.76618 0 -0.863481)
(4.59552 3.07787e-20 -0.833916)
(4.43 2.3192e-23 -0.805102)
(4.26942 0 -0.777019)
(4.11349 0 -0.749639)
(3.96208 0 -0.722943)
(3.81494 4.04238e-20 -0.696915)
(3.67198 -4.16549e-20 -0.67154)
(3.533 -4.26778e-20 -0.646814)
(3.39803 -4.35415e-20 -0.622734)
(3.2668 8.85175e-20 -0.599293)
(3.13958 4.47974e-20 -0.576518)
(3.0159 0 -0.554361)
(2.89633 0 -0.532901)
(2.77995 -2.40013e-23 -0.511979)
(2.66777 0 -0.491758)
(2.55802 0 -0.471902)
(2.45232 -9.1058e-20 -0.452676)
(2.34767 0 -0.433524)
(2.24647 0 -0.414796)
(2.14406 1.77907e-19 -0.395714)
(2.04419 -8.78647e-20 -0.376831)
(1.94054 0 -0.357313)
(1.84104 0 -0.338544)
(1.73793 0 -0.319694)
(1.64793 1.65266e-19 -0.303842)
(1.5601 0 -0.289214)
(1.49804 3.20214e-19 -0.279352)
(1.43213 -1.57445e-19 -0.267562)
(1.37707 0 -0.255871)
(1.28821 0 -0.236988)
(1.20579 1.47443e-19 -0.220267)
(1.10676 -3.58386e-23 -0.203471)
(1.06335 1.4109e-19 -0.198462)
(1.0161 -2.76964e-19 -0.192176)
(1.02037 2.71683e-19 -0.193435)
(0.973732 2.65724e-19 -0.182935)
(0.946276 2.58991e-19 -0.175464)
(0.863406 5.4883e-23 -0.159371)
(0.841036 0 -0.157296)
(0.81428 -2.41574e-19 -0.157144)
(0.897696 0 -0.179849)
(0.995267 0 -0.202398)
(1.14706 4.60832e-19 -0.232577)
(1.27438 0 -0.255576)
(1.39944 0 -0.278788)
(1.5322 0 -0.303818)
(1.65126 -4.1676e-19 -0.327906)
(1.83547 0 -0.364717)
(1.98561 -3.93199e-19 -0.395796)
(2.2377 0 -0.444175)
(2.36796 0 -0.466079)
(2.55724 0 -0.495496)
(2.51438 0 -0.480477)
(2.57544 0 -0.487385)
(2.42782 -5.99158e-19 -0.458948)
(2.54917 -5.73796e-19 -0.486827)
(2.547 5.5614e-19 -0.495944)
(2.96694 0 -0.585856)
(3.22302 0 -0.646892)
(3.97161 -2.17235e-18 -0.793966)
(4.35227 0 -0.875015)
(5.31514 1.07652e-18 -1.05577)
(5.63075 0 -1.12052)
(6.71142 1.03903e-18 -1.31797)
(6.77941 1.01126e-18 -1.33524)
(8.00907 0 -1.56081)
(7.7915 -9.33367e-19 -1.53353)
(9.49478 0 -1.86259)
(32.6461 4.73007e-21 1.026)
(33.0576 1.14825e-20 1.11339)
(33.5042 -6.95869e-21 1.03064)
(33.87 -7.81805e-22 0.767453)
(34.0443 7.53787e-21 0.377276)
(33.9712 0 -0.0779372)
(33.6426 0 -0.549072)
(33.0788 -1.65054e-20 -1.00039)
(32.3151 -3.06687e-20 -1.40829)
(31.3938 -7.0987e-22 -1.75973)
(30.3584 1.40197e-20 -2.05022)
(29.2495 -1.30888e-20 -2.2811)
(28.102 1.18436e-20 -2.45719)
(26.9441 0 -2.58508)
(25.7972 0 -2.67193)
(24.677 -9.63114e-21 -2.72474)
(23.5938 3.5265e-20 -2.74989)
(22.5541 3.24765e-20 -2.75296)
(21.5615 0 -2.73864)
(20.6172 0 -2.71082)
(19.7212 0 -2.67267)
(18.8722 -6.77789e-23 -2.62672)
(18.0685 -2.0976e-20 -2.57501)
(17.3079 9.53711e-21 -2.51913)
(16.5882 1.73512e-20 -2.46037)
(15.9069 -3.15435e-20 -2.39971)
(15.2617 1.42531e-20 -2.33796)
(14.6503 1.28641e-20 -2.27572)
(14.0705 1.15729e-20 -2.21347)
(13.5202 0 -2.15157)
(12.9975 -9.2716e-21 -2.09033)
(12.5004 8.22575e-21 -2.02994)
(12.0274 -7.27277e-21 -1.97056)
(11.5768 -1.27573e-20 -1.91233)
(11.1471 -2.22263e-20 -1.85531)
(10.737 0 -1.79957)
(10.3451 0 -1.74513)
(9.97042 -6.87872e-21 -1.69201)
(9.61173 0 -1.64021)
(9.26804 4.57019e-21 -1.58973)
(8.93842 3.55033e-21 -1.54055)
(8.62198 0 -1.49264)
(8.31791 6.98908e-21 -1.44598)
(8.02546 1.90725e-21 -1.40053)
(7.74392 0 -1.35626)
(7.47264 -8.59568e-22 -1.31313)
(7.211 -2.04888e-21 -1.27111)
(6.95844 0 -1.23015)
(6.71444 8.28714e-21 -1.19024)
(6.4785 -5.03456e-21 -1.15131)
(6.25022 -1.16875e-20 -1.11337)
(6.02913 0 -1.07635)
(5.81493 -2.33359e-23 -1.04025)
(5.60721 3.12125e-20 -1.00502)
(5.40574 0 -0.970656)
(5.21016 0 -0.937124)
(5.0203 -1.82988e-20 -0.904407)
(4.83587 -1.89941e-20 -0.872492)
(4.65676 3.9126e-20 -0.841365)
(4.48271 4.01182e-20 -0.811026)
(4.31375 4.09265e-20 -0.781471)
(4.14954 -4.15828e-20 -0.752694)
(3.99038 -8.41706e-20 -0.724724)
(3.83567 0 -0.6975)
(3.68607 0 -0.671105)
(3.54039 -8.58001e-20 -0.645349)
(3.39988 0 -0.620407)
(3.26229 0 -0.595879)
(3.12966 8.55231e-20 -0.572071)
(2.99831 0 -0.548324)
(2.8713 -8.43208e-20 -0.525065)
(2.74301 -3.00932e-23 -0.501391)
(2.61835 8.24882e-20 -0.478015)
(2.48969 0 -0.454024)
(2.367 0 -0.431123)
(2.2407 0 -0.408415)
(2.13067 1.54987e-19 -0.389483)
(2.02284 0 -0.372081)
(1.94473 -1.50183e-19 -0.360005)
(1.86034 2.95339e-19 -0.345014)
(1.78937 0 -0.329796)
(1.67976 0 -0.306358)
(1.58217 0 -0.286653)
(1.46616 -3.64778e-23 -0.267794)
(1.41604 -1.32268e-19 -0.262971)
(1.35789 -2.59468e-19 -0.255796)
(1.35955 -2.54632e-19 -0.256703)
(1.30032 2.48909e-19 -0.243067)
(1.2692 0 -0.234162)
(1.17523 2.36437e-19 -0.216183)
(1.15768 0 -0.216313)
(1.13429 2.26273e-19 -0.219307)
(1.23903 0 -0.24866)
(1.35448 0 -0.275937)
(1.53128 0 -0.311266)
(1.67942 -4.22565e-19 -0.337591)
(1.82475 -4.1196e-19 -0.364548)
(1.98356 0 -0.394404)
(2.12269 3.89883e-19 -0.42304)
(2.34448 -3.79171e-19 -0.46753)
(2.51536 3.67907e-19 -0.503417)
(2.81118 -3.56922e-19 -0.559694)
(2.9483 0 -0.581475)
(3.17195 0 -0.614559)
(3.11523 0 -0.59464)
(3.21319 0 -0.607002)
(3.05609 5.60265e-19 -0.57769)
(3.25313 9.28417e-23 -0.622692)
(3.27511 -1.03975e-18 -0.641015)
(3.82703 0 -0.759786)
(4.13427 0 -0.835288)
(5.05451 1.01504e-18 -1.01616)
(5.48925 0 -1.11052)
(6.64794 -1.00601e-18 -1.32667)
(6.99721 0 -1.39945)
(8.29073 -1.94147e-18 -1.63316)
(8.3498 0 -1.65059)
(9.81501 0 -1.9167)
(9.54854 8.7191e-19 -1.88544)
(11.5089 0 -2.26484)
(32.6711 0 0.672461)
(32.9729 -5.28475e-21 0.715979)
(33.3102 0 0.666625)
(33.6411 -6.63873e-21 0.503633)
(33.9025 -1.35344e-20 0.241845)
(34.0437 0 -0.0869992)
(34.0361 6.75285e-21 -0.45147)
(33.8684 0 -0.825464)
(33.5412 9.01697e-22 -1.18878)
(33.064 -2.60155e-20 -1.52696)
(32.4528 0 -1.83069)
(31.7279 0 -2.09508)
(30.9115 -1.11395e-20 -2.31853)
(30.0258 0 -2.50177)
(29.0919 0 -2.6471)
(28.1286 0 -2.75778)
(27.1522 -1.64743e-20 -2.83759)
(26.1759 -1.51873e-20 -2.89047)
(25.2103 -1.37913e-20 -2.9203)
(24.2634 0 -2.93071)
(23.341 0 -2.92498)
(22.4472 -1.07712e-20 -2.90602)
(21.5844 9.83931e-21 -2.87633)
(20.7542 -8.96992e-21 -2.83806)
(19.9571 -1.63192e-20 -2.79301)
(19.193 2.95497e-20 -2.74269)
(18.4614 -5.49456e-23 -2.68836)
(17.7614 -1.20986e-20 -2.63103)
(17.0921 -1.08841e-20 -2.57157)
(16.4522 0 -2.51067)
(15.8404 0 -2.44889)
(15.2554 -7.73576e-21 -2.38669)
(14.696 0 -2.32444)
(14.1607 1.19968e-20 -2.26243)
(13.6483 1.04489e-20 -2.20091)
(13.1576 -9.01066e-21 -2.14006)
(12.6874 0 -2.08002)
(12.2365 6.46791e-21 -2.0209)
(11.804 5.34009e-21 -1.96279)
(11.3886 3.19431e-24 -1.90574)
(10.9896 -6.68014e-21 -1.84981)
(10.6059 0 -1.79501)
(10.2368 -3.29203e-21 -1.74136)
(9.88125 0 -1.68886)
(9.53866 0 -1.63751)
(9.20825 0 -1.58728)
(8.88935 1.28761e-23 -1.53818)
(8.58129 0 -1.49018)
(8.28352 -3.88777e-21 -1.44326)
(7.99545 9.4504e-21 -1.3974)
(7.71662 1.09829e-20 -1.35258)
(7.4465 0 -1.30877)
(7.18473 -1.35674e-20 -1.26596)
(6.93085 -2.92833e-20 -1.22413)
(6.68457 0 -1.18326)
(6.4455 0 -1.14334)
(6.21345 1.7189e-20 -1.10434)
(5.98804 1.78061e-20 -1.06626)
(5.7692 -1.83658e-20 -1.0291)
(5.55656 -3.7614e-20 -0.992856)
(5.35021 0 -0.957526)
(5.14969 0 -0.923111)
(4.95535 2.74644e-23 -0.889635)
(4.76642 -3.98376e-20 -0.85703)
(4.58368 0 -0.825378)
(4.40566 4.02586e-20 -0.794454)
(4.2338 0 -0.76445)
(4.06542 0 -0.734898)
(3.90298 0 -0.706146)
(3.74205 0 -0.677433)
(3.5865 3.23148e-23 -0.649274)
(3.42966 -2.96338e-23 -0.620656)
(3.2778 -7.73269e-20 -0.592461)
(3.12188 0 -0.563729)
(2.97407 -7.50709e-20 -0.536489)
(2.82275 0 -0.509789)
(2.69101 -1.45331e-19 -0.487673)
(2.56121 1.4293e-19 -0.467364)
(2.46487 -1.40705e-19 -0.452814)
(2.35956 -1.38407e-19 -0.434231)
(2.27082 0 -0.415093)
(2.13931 1.32717e-19 -0.386921)
(2.0265 0 -0.364368)
(1.89332 -1.26477e-19 -0.343744)
(1.83604 -1.23847e-19 -0.339296)
(1.76562 2.43071e-19 -0.331137)
(1.76339 0 -0.331411)
(1.69076 -4.662e-19 -0.314489)
(1.65673 0 -0.304323)
(1.55325 2.21291e-19 -0.284985)
(1.54286 0 -0.288132)
(1.52449 2.11698e-19 -0.295095)
(1.65062 0 -0.331598)
(1.78293 4.10676e-19 -0.363541)
(1.98248 -4.03495e-19 -0.403638)
(2.1502 3.95436e-19 -0.432896)
(2.31326 3.85473e-19 -0.463169)
(2.49771 0 -0.497746)
(2.65359 -7.294e-19 -0.530512)
(2.91284 7.09292e-19 -0.582677)
(3.09907 0 -0.622453)
(3.43804 3.33807e-19 -0.686227)
(3.57576 0 -0.706424)
(3.83723 0 -0.743322)
(3.76474 -5.83988e-19 -0.718043)
(3.91064 0 -0.738093)
(3.74512 0 -0.708911)
(4.03279 5.01397e-19 -0.77433)
(4.07626 9.71541e-19 -0.802261)
(4.77189 4.77755e-19 -0.952614)
(5.12097 0 -1.04164)
(6.21946 0 -1.25746)
(6.69623 0 -1.36337)
(8.05519 0 -1.61514)
(8.42894 9.29933e-19 -1.69453)
(9.93861 9.06751e-19 -1.96409)
(9.98609 0 -1.98155)
(11.6824 0 -2.28645)
(11.3747 0 -2.25307)
(13.5613 0 -2.67718)
(32.6706 4.23591e-21 0.383831)
(32.9029 0 0.399951)
(33.159 4.95378e-21 0.359421)
(33.4241 0 0.246199)
(33.6674 6.05521e-21 0.0608262)
(33.8575 0 -0.181998)
(33.9715 -6.34682e-21 -0.463126)
(33.9943 1.16452e-20 -0.764609)
(33.9169 2.37732e-20 -1.07128)
(33.7345 7.29327e-22 -1.37115)
(33.4468 0 -1.65522)
(33.0572 0 -1.91728)
(32.5723 0 -2.15346)
(32.0012 0 -2.3617)
(31.3549 0 -2.54125)
(30.6454 0 -2.69238)
(29.8852 1.48483e-20 -2.81611)
(29.0864 -1.37678e-20 -2.91403)
(28.2606 1.29583e-20 -2.98811)
(27.4183 0 -3.04057)
(26.5686 0 -3.07373)
(25.7194 9.91894e-21 -3.08993)
(24.877 9.08449e-21 -3.09139)
(24.0467 8.30048e-21 -3.08023)
(23.2324 0 -3.05837)
(22.4372 -1.3849e-20 -3.02754)
(21.6632 -2.50115e-20 -2.98929)
(20.912 1.12676e-20 -2.94495)
(20.1844 0 -2.8957)
(19.4809 0 -2.84255)
(18.8016 0 -2.78633)
(18.1463 7.23213e-21 -2.7278)
(17.5146 0 -2.66756)
(16.9061 0 -2.60613)
(16.32 9.78877e-21 -2.54394)
(15.7556 8.46467e-21 -2.48136)
(15.2121 0 -2.41868)
(14.6887 6.07055e-21 -2.35615)
(14.1846 -1.00299e-20 -2.29398)
(13.6989 -4.03911e-21 -2.23232)
(13.2309 3.13924e-21 -2.17132)
(12.7796 0 -2.11106)
(12.3443 0 -2.05165)
(11.9242 0 -1.99313)
(11.5186 4.42011e-22 -1.93555)
(11.1268 0 -1.87895)
(10.748 1.79631e-21 -1.82334)
(10.3816 2.75134e-21 -1.76875)
(10.027 0 -1.71518)
(9.68364 -4.43081e-21 -1.66263)
(9.35096 0 -1.61112)
(9.02841 0 -1.56063)
(8.71562 -1.26952e-20 -1.51117)
(8.41207 1.99762e-23 -1.46272)
(8.11748 1.46157e-20 -1.41529)
(7.83138 0 -1.36888)
(7.5536 0 -1.32347)
(7.28371 -1.67109e-20 -1.27907)
(7.02165 0 -1.23569)
(6.76699 3.52959e-20 -1.19333)
(6.51984 0 -1.15201)
(6.27965 0 -1.11171)
(6.04684 7.40408e-20 -1.07247)
(5.82044 7.47184e-20 -1.03422)
(5.60138 3.75814e-20 -0.997022)
(5.38785 0 -0.96063)
(5.18156 0 -0.925247)
(4.9793 3.77113e-20 -0.890337)
(4.78402 7.51545e-20 -0.856295)
(4.59053 0 -0.822265)
(4.40358 7.41471e-20 -0.788853)
(4.2154 -7.33925e-20 -0.754955)
(4.0338 7.24889e-20 -0.721636)
(3.84821 -7.14464e-20 -0.687914)
(3.67319 7.03618e-20 -0.65614)
(3.4948 0 -0.625314)
(3.33941 0 -0.599888)
(3.18539 -1.33928e-19 -0.576505)
(3.0684 2.63615e-19 -0.559187)
(2.9396 0 -0.536626)
(2.8312 0 -0.513217)
(2.67664 -1.24312e-19 -0.480195)
(2.54838 0 -0.45494)
(2.39754 0 -0.432816)
(2.33227 1.15971e-19 -0.428872)
(2.24797 2.27445e-19 -0.419647)
(2.24049 0 -0.419064)
(2.15378 2.18188e-19 -0.398698)
(2.11755 0 -0.387473)
(2.00604 -2.07119e-19 -0.367351)
(2.00455 2.02089e-19 -0.374338)