/*--------------------------------*- C++ -*----------------------------------*\
| =========                 |                                                 |
| \\      /  F ield         | OpenFOAM: The Open Source CFD Toolbox           |
|  \\    /   O peration     | Version:  2412                                  |
|   \\  /    A nd           | Website:  www.openfoam.com                      |
|    \\/     M anipulation  |                                                 |
\*---------------------------------------------------------------------------*/
FoamFile
{
    version     2.0;
    format      ascii;
    arch        "LSB;label=32;scalar=64";
    class       surfaceScalarField;
    location    "0.74";
    object      phi_0;
}
// * * * * * * * * * * * * * * * * * * * * * * * * * * * * * * * * * * * * * //

dimensions      [0 3 -1 0 0 0 0];

oriented        oriented;

internalField   nonuniform List<scalar> 
24930
(
0.0158504
0.021016
-0.0368687
0.00654525
0.00930521
0.00302816
0.0035171
0.00170594
0.00132222
0.00110457
0.000601375
0.000752343
0.000352236
0.000514856
0.000237509
0.000344087
0.000170787
0.000216989
0.000127101
0.000120524
9.64582e-05
4.54776e-05
7.50447e-05
-1.31165e-05
5.86164e-05
-5.9196e-05
4.61168e-05
-9.55658e-05
3.63866e-05
-0.000123623
2.80282e-05
-0.00014574
2.20748e-05
-0.000162435
1.67118e-05
-0.00017506
1.27203e-05
-0.000183896
8.8992e-06
-0.000190115
6.11894e-06
-0.000193887
3.60797e-06
-0.000195451
1.69708e-06
-0.000195136
4.29521e-09
-0.00019365
-1.72971e-06
-0.000191272
-3.1177e-06
-0.000187625
-3.36906e-06
-0.000183345
-3.70088e-06
-0.000178589
-4.77684e-06
-0.000173095
-5.68034e-06
-0.000167353
-5.73822e-06
-0.000161447
-5.86354e-06
-0.000155401
-6.0901e-06
-0.000149244
-6.20507e-06
-0.000143085
-6.15098e-06
-0.000137011
-6.05371e-06
-0.000131024
-5.99337e-06
-0.000125137
-5.90689e-06
-0.000119381
-5.76143e-06
-0.00011379
-5.58111e-06
-0.000108389
-5.3919e-06
-0.00010317
-5.21791e-06
-9.81197e-05
-5.05052e-06
-9.32451e-05
-4.86836e-06
-8.85247e-05
-4.7107e-06
-8.3923e-05
-4.59447e-06
-7.94219e-05
-4.49878e-06
-7.50019e-05
-4.42076e-06
-7.06879e-05
-4.31521e-06
-6.65284e-05
-4.16215e-06
-6.25867e-05
-3.94732e-06
-5.89499e-05
-3.64528e-06
-5.56853e-05
-3.27421e-06
-5.28229e-05
-2.87166e-06
-5.03307e-05
-2.49992e-06
-4.80501e-05
-2.28676e-06
-4.56854e-05
-2.36949e-06
-4.27364e-05
-2.95398e-06
-3.84908e-05
-4.25125e-06
-3.2036e-05
-6.46304e-06
-2.23485e-05
-9.69646e-06
-8.70183e-06
-1.36535e-05
8.6544e-06
-1.73634e-05
2.81515e-05
-1.95048e-05
4.63066e-05
-1.81637e-05
5.84186e-05
-1.21232e-05
5.98149e-05
-1.40302e-06
4.79259e-05
1.18848e-05
2.33354e-05
2.4588e-05
-8.88943e-06
3.22241e-05
-4.1321e-05
3.24295e-05
-6.52378e-05
2.39096e-05
-7.3589e-05
8.33067e-06
-6.26788e-05
-1.09082e-05
-3.48378e-05
-2.78311e-05
9.07782e-06
-4.39149e-05
6.32931e-05
-5.42113e-05
0.000116563
-5.32836e-05
0.00016082
-4.42594e-05
0.000182895
-2.20347e-05
0.000138072
4.48175e-05
-2.81926e-05
0.000166244
-0.000308269
0.000280053
-0.000624112
0.000315833
-0.00094042
0.000316284
-0.00120389
0.000263491
-0.00112282
-8.10504e-05
0.000148166
-0.001271
0.00139118
-0.00124311
0.000267803
0.00112332
0.00172605
-0.00145847
0.00304095
-0.00131488
0.000485991
0.0025551
-4.82272e-05
0.000533965
7.21295e-05
-0.000120326
0.000225966
-0.000153904
0.000508982
-0.000283029
0.000783262
-0.000274217
0.0010305
-0.000247216
0.00106301
-3.25927e-05
0.000142472
0.000920502
-0.00158092
0.00172342
-0.00355973
0.00197886
-0.00519392
0.00163426
-0.00594482
0.000751058
-0.00576335
-0.000181417
-0.00473558
-0.00102775
-0.00312697
-0.00160861
-0.00195965
-0.00116735
-0.00112621
-0.000833444
-0.000448528
-0.000677694
5.17817e-06
-0.000453709
0.000568442
-0.000563259
0.000927459
-0.000359029
0.000928511
-1.05969e-06
0.000666656
0.00026184
-4.03272e-05
0.000706974
-0.000406391
0.000366064
-0.00023095
-0.000175437
0.000283411
-0.000514358
-0.000388845
0.0334951
0.0299403
-0.0424193
0.0225187
0.0202816
0.014268
0.0117679
0.00918989
0.00640029
0.00620545
0.00358584
0.00437119
0.00218653
0.00315165
0.00145708
0.00228675
0.0010357
0.00164635
0.000767504
0.00115771
0.000585098
0.000778154
0.000454624
0.000479015
0.000357802
0.000241432
0.000283736
5.34745e-05
0.000224336
-0.000102427
0.000183891
-0.000228472
0.000148117
-0.000328094
0.000116408
-0.000406974
9.16948e-05
-0.000468028
6.99507e-05
-0.00051504
5.30038e-05
-0.000549912
3.83695e-05
-0.000574424
2.63553e-05
-0.000590258
1.62651e-05
-0.000599241
7.25355e-06
-0.000602575
-3.15447e-07
-0.000600927
-5.1859e-06
-0.000594945
-1.00671e-05
-0.000585851
-1.40926e-05
-0.000573778
-1.77196e-05
-0.000559646
-1.98986e-05
-0.000543894
-2.17105e-05
-0.000526891
-2.31354e-05
-0.000508952
-2.40995e-05
-0.000490454
-2.46236e-05
-0.000471699
-2.48522e-05
-0.000452825
-2.49161e-05
-0.000433979
-2.47549e-05
-0.000415307
-2.44139e-05
-0.000396933
-2.39579e-05
-0.000378976
-2.33725e-05
-0.000361474
-2.27366e-05
-0.00034442
-2.21002e-05
-0.000327845
-2.14334e-05
-0.000311692
-2.08619e-05
-0.000295863
-2.04301e-05
-0.000280314
-2.00499e-05
-0.000265006
-1.97241e-05
-0.000250023
-1.92915e-05
-0.00023554
-1.86413e-05
-0.000221791
-1.76962e-05
-0.000209085
-1.63508e-05
-0.000197675
-1.46834e-05
-0.000187681
-1.28636e-05
-0.00017901
-1.11721e-05
-0.000171146
-1.01544e-05
-0.00016309
-1.04314e-05
-0.000153154
-1.28974e-05
-0.00013892
-1.8494e-05
-0.000117256
-2.8136e-05
-8.47083e-05
-4.22552e-05
-3.88006e-05
-5.95737e-05
1.99049e-05
-7.60816e-05
8.62853e-05
-8.5896e-05
0.000149051
-8.09349e-05
0.00019274
-5.58092e-05
0.000201641
-1.03131e-05
0.000166513
4.70134e-05
8.85576e-05
0.000102538
-1.56535e-05
0.000136434
-0.000120316
0.000137083
-0.000196134
9.97153e-05
-0.00021955
3.17367e-05
-0.00018072
-4.97503e-05
-8.61035e-05
-0.000122453
5.95744e-05
-0.000189591
0.000238566
-0.000233213
0.00041013
-0.000224872
0.000544485
-0.000178636
0.000588522
-6.61018e-05
0.000391875
0.000241481
-0.000221876
0.000780033
-0.00120138
0.00125956
-0.00224545
0.00135989
-0.00320651
0.00127731
-0.00398327
0.0010402
-0.00371085
-0.000353531
0.000471123
-0.00545292
0.00447269
-0.00524481
0.000803426
0.00479263
0.00559367
-0.00624875
0.0101735
-0.00589471
0.00209187
0.0106369
-7.68983e-08
0.00262587
0.000273381
-0.000393727
0.000846327
-0.000726901
0.00186058
-0.00129736
0.00265165
-0.00106528
0.00342786
-0.00102348
0.00305148
0.000343896
-0.000433228
0.00440525
-0.00636274
0.00765289
-0.0126723
0.00828834
-0.0175148
0.00647673
-0.0194761
0.00271221
-0.0184885
-0.00116896
-0.0150336
-0.00448268
-0.00982482
-0.0068174
-0.00598153
-0.00501065
-0.00347153
-0.00334344
-0.0012111
-0.00293812
0.000330562
-0.00199537
0.00217494
-0.00240763
0.0032673
-0.00145139
0.0031712
9.50553e-05
0.00205771
0.00137534
-0.000231021
0.00299571
-0.00120652
0.00134156
-0.000468568
-0.000913392
0.00119871
-0.00218163
-0.001649
0.0432703
0.0322113
-0.0455412
0.0359772
0.0275747
0.0273932
0.0203519
0.0199759
0.0138176
0.0144755
0.00908623
0.010619
0.00604305
0.00790596
0.00417018
0.00594007
0.0030016
0.00446842
0.00223915
0.00333736
0.00171617
0.00245054
0.00134148
0.00174513
0.00106326
0.00117812
0.000850768
0.000719089
0.000683334
0.000347556
0.000555396
4.69922e-05
0.000448717
-0.000200706
0.000364203
-0.000400894
0.000291938
-0.000561117
0.000230111
-0.000688676
0.000180452
-0.000788428
0.000138093
-0.000864746
0.000102718
-0.0009214
7.30948e-05
-0.000961335
4.76039e-05
-0.000987257
2.58601e-05
-0.00100119
8.28628e-06
-0.00100589
-5.88653e-06
-0.00100224
-1.79339e-05
-0.000991625
-2.81772e-05
-0.000975574
-3.59905e-05
-0.000955103
-4.22555e-05
-0.000931117
-4.71329e-05
-0.000904397
-5.07906e-05
-0.000875733
-5.32888e-05
-0.000845778
-5.48454e-05
-0.000814922
-5.57985e-05
-0.000783538
-5.61379e-05
-0.00075197
-5.59792e-05
-0.000720503
-5.54379e-05
-0.000689416
-5.44792e-05
-0.000658843
-5.33184e-05
-0.00062883
-5.21116e-05
-0.000599459
-5.08012e-05
-0.000570673
-4.96498e-05
-0.000542334
-4.8771e-05
-0.000514389
-4.79924e-05
-0.000486796
-4.73102e-05
-0.00045972
-4.63609e-05
-0.000433495
-4.4863e-05
-0.000408558
-4.26308e-05
-0.000385484
-3.94227e-05
-0.000364753
-3.5413e-05
-0.000346614
-3.10024e-05
-0.000330925
-2.68641e-05
-0.000316802
-2.42819e-05
-0.000302483
-2.47572e-05
-0.000284979
-3.04089e-05
-0.000259984
-4.34971e-05
-0.000221917
-6.6212e-05
-0.00016458
-9.9603e-05
-8.35074e-05
-0.000140659
2.06441e-05
-0.000180246
0.000139252
-0.000204515
0.000253032
-0.000194723
0.000335088
-0.000137871
0.000357836
-3.30674e-05
0.000303778
0.000101067
0.000174129
0.00023218
-2.83932e-06
0.000313399
-0.000181527
0.000315759
-0.000309524
0.000227697
-0.000346297
6.84994e-05
-0.000276257
-0.000119799
-0.000110303
-0.000288409
0.000143612
-0.000443517
0.000455358
-0.000544974
0.000745859
-0.000515394
0.000959592
-0.000392377
0.000994818
-0.000101319
0.000584416
0.000651888
-0.000571495
0.00193595
-0.00235494
0.00304298
-0.00415768
0.0031626
-0.00570165
0.00282124
-0.00693625
0.00227477
-0.00646715
-0.000822682
0.000662767
-0.0125828
0.0076114
-0.0121936
0.00104771
0.0113563
0.00951952
-0.0147205
0.0183396
-0.0147147
0.00442172
0.0245548
0.000338644
0.00670872
0.000521226
-0.000576264
0.00161927
-0.00182502
0.00346918
-0.00314733
0.00474053
-0.00233657
0.00594129
-0.00222427
0.00468695
0.00159829
-0.00195886
0.0110511
-0.0126196
0.0183136
-0.0232493
0.018918
-0.0308717
0.0140991
-0.0335266
0.00536713
-0.0313155
-0.00338006
-0.025237
-0.0105612
-0.0162841
-0.0157703
-0.00979795
-0.0114968
-0.00567335
-0.00746804
-0.00174892
-0.00686255
0.000979224
-0.00472352
0.00420213
-0.00563052
0.0059875
-0.00323675
0.00565556
0.000427
0.00346253
0.00356837
-0.000473145
0.00693138
-0.00188776
0.00275617
-0.000433105
-0.00236805
0.00245417
-0.0050689
-0.00384356
0.0490872
0.0317056
-0.0485815
0.0458451
0.0308167
0.0395542
0.0266429
0.0321858
0.021186
0.0253075
0.0159646
0.0196209
0.0117297
0.0151806
0.00861055
0.0117667
0.00641546
0.00912677
0.00487913
0.0070584
0.00378455
0.00541563
0.0029843
0.00409541
0.00238352
0.00302443
0.00192175
0.00214959
0.00155815
0.00143325
0.00127172
0.000844325
0.00103769
0.000360902
0.000847723
-3.40799e-05
0.00068695
-0.000361406
0.000557341
-0.00062596
0.000444907
-0.000838472
0.00035066
-0.001007
0.000271444
-0.00113844
0.0002047
-0.00123852
0.000147642
-0.00131225
9.96136e-05
-0.0013636
5.86635e-05
-0.00139527
2.49714e-05
-0.00141062
-2.5679e-06
-0.00141367
-2.49499e-05
-0.00140562
-4.41053e-05
-0.00138831
-5.96244e-05
-0.00136363
-7.18066e-05
-0.00133304
-8.13599e-05
-0.00129794
-8.84033e-05
-0.00125953
-9.32911e-05
-0.00121863
-9.67243e-05
-0.00117595
-9.88124e-05
-0.00113215
-9.97759e-05
-0.00108779
-9.98211e-05
-0.00104338
-9.89113e-05
-0.000999228
-9.74748e-05
-0.000955495
-9.58425e-05
-0.000912365
-9.39296e-05
-0.00086982
-9.21966e-05
-0.000827717
-9.08746e-05
-0.000786021
-8.9685e-05
-0.000744714
-8.86104e-05
-0.000704065
-8.70029e-05
-0.000664602
-8.43225e-05
-0.000627008
-8.02215e-05
-0.000592172
-7.42565e-05
-0.000560852
-6.67306e-05
-0.000533469
-5.83851e-05
-0.000509858
-5.04778e-05
-0.000488758
-4.53866e-05
-0.000467583
-4.59384e-05
-0.000441925
-5.60747e-05
-0.000405396
-8.00352e-05
-0.0003497
-0.000121917
-0.000265605
-0.000183709
-0.000146291
-0.000259987
7.62186e-06
-0.000334172
0.000184613
-0.000381517
0.000356906
-0.000367024
0.000485772
-0.000266744
0.00053058
-7.78845e-05
0.000464181
0.000167461
0.000286353
0.00041
3.70575e-05
0.000562692
-0.000216182
0.000568986
-0.000396873
0.000408371
-0.000446097
0.00011771
-0.00034262
-0.000223284
-0.000101202
-0.00052983
0.000264953
-0.000809682
0.000713358
-0.000993395
0.00112168
-0.00092374
0.00139979
-0.000670494
0.00138794
-8.94804e-05
0.000687792
0.00135204
-0.00111822
0.00374197
-0.00379359
0.00571832
-0.00635808
0.00572707
-0.00840498
0.00486809
-0.0100307
0.00390041
-0.00936249
-0.0014909
0.000573308
-0.0225186
0.010594
-0.0222144
0.000816442
0.0211339
0.0133989
-0.0273029
0.0277567
-0.0290723
0.00768974
0.0446218
0.000998442
0.0133997
0.000828829
-0.000406614
0.00255966
-0.00355593
0.00534061
-0.00592835
0.0070577
-0.00405361
0.00848093
-0.00364752
0.00578194
0.00429732
-0.0047202
0.0215532
-0.0204371
0.0340304
-0.0351717
0.0336526
-0.0449758
0.0239031
-0.0477095
0.00810087
-0.0438487
-0.00724085
-0.0350188
-0.0193911
-0.022344
-0.0284451
-0.0133109
-0.0205299
-0.00771012
-0.0130688
-0.00203265
-0.01254
0.00199266
-0.00874882
0.00666254
-0.0103004
0.00910545
-0.00567967
0.0083675
0.00116496
0.00487553
0.00706034
-0.00071404
0.0125209
-0.00235967
0.0044018
-2.95108e-05
-0.0046982
0.00409772
-0.00919613
-0.00702345
0.0529116
0.0305583
-0.0517642
0.0523334
0.031395
0.0490071
0.0299692
0.043522
0.0266711
0.0370496
0.022437
0.0306357
0.0181436
0.024893
0.0143533
0.020035
0.0112734
0.0160362
0.00887789
0.012775
0.0070458
0.010115
0.00564435
0.00793686
0.0045617
0.00614469
0.00371393
0.00466344
0.00303936
0.00343647
0.00249868
0.00241747
0.00205674
0.00157128
0.00169401
0.000868478
0.00138977
0.000287583
0.00113816
-0.000191536
0.000923964
-0.000584965
0.00074415
-0.000904012
0.000590619
-0.00116007
0.000460827
-0.00136247
0.000349842
-0.00151911
0.000256055
-0.0016369
0.000176465
-0.00172231
0.000110259
-0.0017801
5.57618e-05
-0.00181238
7.44483e-06
-0.00182697
-2.96018e-05
-0.00182546
-6.11814e-05
-0.0018101
-8.71444e-05
-0.0017837
-0.000107739
-0.00174857
-0.000123559
-0.00170669
-0.000135201
-0.00165954
-0.000143898
-0.00160836
-0.000149986
-0.00155429
-0.000153853
-0.00149827
-0.00015586
-0.00144119
-0.000156005
-0.00138365
-0.000155019
-0.001326
-0.000153498
-0.00126858
-0.000151342
-0.0012115
-0.000149278
-0.00115466
-0.000147721
-0.00109807
-0.000146271
-0.00104178
-0.000144895
-0.000986203
-0.000142578
-0.000932093
-0.000138429
-0.000880434
-0.00013188
-0.000832478
-0.000122211
-0.000789325
-0.000109882
-0.000751615
-9.60951e-05
-0.000719195
-8.28988e-05
-0.000690428
-7.41572e-05
-0.000661855
-7.45167e-05
-0.000627533
-9.04036e-05
-0.000578797
-0.000128779
-0.000504357
-0.000196367
-0.000391638
-0.000296439
-0.000231125
-0.000420512
-2.28748e-05
-0.000542434
0.000218498
-0.0006229
0.000457385
-0.00060592
0.000642801
-0.000452169
0.000720015
-0.00015511
0.000650722
0.000236747
0.000431591
0.000629119
0.000113523
0.000880754
-0.000213
0.000895493
-0.000446347
0.000641698
-0.000508006
0.000179353
-0.000370872
-0.000360429
-5.26585e-05
-0.000848048
0.000426563
-0.00128891
0.00101264
-0.00157949
0.00153293
-0.00144404
0.0018538
-0.000991374
0.00174527
1.90998e-05
0.000667773
0.00242955
-0.00190021
0.00630998
-0.00554511
0.0093632
-0.00883434
0.00901628
-0.0112664
0.00730004
-0.0132096
0.00584364
-0.0123318
-0.00236884
3.1307e-05
-0.0348817
0.0131341
-0.0353174
0.000171534
0.0340965
0.0171723
-0.0443036
0.0384297
-0.0503296
0.0121044
0.0709471
0.00207682
0.0234269
0.00121777
0.000452481
0.00367045
-0.0060087
0.0074803
-0.00973827
0.0096024
-0.00617564
0.0109639
-0.00500902
0.00618235
0.0090789
-0.00885371
0.0365893
-0.0298226
0.0549993
-0.0482043
0.0520343
-0.059434
0.0351327
-0.0615947
0.0102616
-0.0557288
-0.0131068
-0.0441067
-0.0310132
-0.0278197
-0.0447321
-0.0165022
-0.0318475
-0.00953439
-0.0200366
-0.00204739
-0.020027
0.00335621
-0.0141524
0.0095799
-0.0165241
0.0126378
-0.00873757
0.0113163
0.00248647
0.00634444
0.0120322
-0.000870629
0.019736
-0.00255398
0.00608515
0.000720996
-0.00797318
0.00616218
-0.0146373
-0.0112339
0.0560726
0.0295935
-0.0551079
0.0566518
0.0308159
0.0556222
0.0309988
0.0525621
0.0297312
0.0478112
0.0271879
0.0420859
0.0238689
0.0361055
0.0203338
0.0303956
0.0169833
0.0252465
0.014027
0.0207605
0.0115318
0.0169267
0.00947814
0.0136818
0.00780668
0.0109465
0.00644924
0.00864384
0.00534201
0.00670704
0.00443546
0.00507796
0.00368586
0.00370901
0.00306304
0.00255954
0.00253927
0.00159755
0.0021001
0.000794647
0.00172683
0.000128635
0.00141019
-0.000421871
0.00114115
-0.000872375
0.000911314
-0.00123709
0.000714455
-0.00152838
0.00054733
-0.00175672
0.000405161
-0.00193125
0.000285179
-0.00206001
0.00018483
-0.00215278
0.000100325
-0.00221023
2.77564e-05
-0.0022411
-3.03364e-05
-0.00225081
-7.74058e-05
-0.00224095
-0.000117577
-0.00221574
-0.000148802
-0.00217838
-0.000172601
-0.00213126
-0.000191027
-0.00207645
-0.000204799
-0.00201575
-0.000214554
-0.00195072
-0.000220911
-0.00188279
-0.000223956
-0.00181297
-0.000224838
-0.00174193
-0.000224538
-0.00167031
-0.000222966
-0.00159839
-0.000221197
-0.0015262
-0.000219919
-0.00145386
-0.0002186
-0.00138155
-0.000217204
-0.00130985
-0.000214275
-0.00123981
-0.000208466
-0.00117276
-0.000198928
-0.00111039
-0.000184585
-0.00105419
-0.00016608
-0.00100508
-0.000145199
-0.000962979
-0.000125006
-0.000925861
-0.000111279
-0.00088935
-0.000111033
-0.000845857
-0.000133903
-0.00078425
-0.000190395
-0.000689989
-0.000290637
-0.000546847
-0.000439593
-0.000342216
-0.000625157
-7.51522e-05
-0.000809509
0.00023705
-0.000935113
0.000551387
-0.000920265
0.000804464
-0.000705254
0.000926644
-0.000277302
0.000866779
0.000296605
0.000616346
0.000879538
0.000235926
0.00126116
-0.000160671
0.00129207
-0.000446708
0.000927713
-0.000522325
0.000254951
-0.00035383
-0.000528936
3.78394e-05
-0.00123972
0.000629047
-0.00188013
0.00135052
-0.00230098
0.00197328
-0.00206681
0.00230825
-0.00132634
0.0020448
0.000282493
0.000488211
0.00398616
-0.0029542
0.00975242
-0.00762188
0.0140309
-0.0115546
0.012949
-0.014232
0.00997729
-0.0164304
0.00804198
-0.0153366
-0.00346273
-0.0013771
-0.0488411
0.0149304
-0.051625
-0.000540059
0.0495671
0.0209225
-0.0657661
0.0499498
-0.0793567
0.0178201
0.103077
0.00369626
0.0375504
0.00172254
0.00242624
0.00494603
-0.00923229
0.00988419
-0.0146765
0.012362
-0.00865338
0.013285
-0.00593206
0.00569674
0.0166673
-0.0144962
0.0567823
-0.0406704
0.0811734
-0.0620059
0.0733697
-0.0738135
0.0469402
-0.0748006
0.0112487
-0.0666817
-0.0212257
-0.0523263
-0.0453686
-0.0326816
-0.0643768
-0.0193793
-0.0451498
-0.0111488
-0.0282671
-0.00180596
-0.0293698
0.00505167
-0.0210101
0.0129475
-0.0244199
0.0165963
-0.0123864
0.0145141
0.00456866
0.00790945
0.0186369
-0.000852912
0.0284984
-0.00238555
0.00761778
0.00192144
-0.0122802
0.00867957
-0.0213954
-0.0165119
0.0593474
0.0289219
-0.0586758
0.0601382
0.0300251
0.0603069
0.0308301
0.0591699
0.0308683
0.0564677
0.0298901
0.0523704
0.0279662
0.0473051
0.0253991
0.0417647
0.0225236
0.0361788
0.019613
0.0308563
0.0168544
0.0259798
0.0143547
0.0216287
0.0121578
0.0178129
0.010265
0.0145033
0.00865163
0.0116538
0.00728494
0.00921225
0.00612741
0.00712848
0.00514688
0.00535538
0.00431242
0.00385257
0.00360287
0.00258327
0.0029961
0.00151631
0.00247714
0.000624495
0.00203291
-0.00011571
0.00165148
-0.000726289
0.00132508
-0.00122402
0.00104522
-0.00162469
0.000806306
-0.00194209
0.000602984
-0.00218807
0.000430971
-0.00237296
0.000285195
-0.00250913
0.000163824
-0.00260075
6.1269e-05
-0.00265383
-2.42931e-05
-0.00267999
-9.14142e-05
-0.00267991
-0.00014892
-0.00265935
-0.000193197
-0.00262214
-0.000228247
-0.00257153
-0.000255405
-0.00251034
-0.00027575
-0.00244099
-0.000290285
-0.00236568
-0.000299279
-0.00228608
-0.000304439
-0.00220332
-0.000307298
-0.00211847
-0.000307817
-0.00203216
-0.000307515
-0.0019446
-0.000307472
-0.00185617
-0.000307034
-0.00176718
-0.000306188
-0.00167848
-0.000302968
-0.00159148
-0.000295471
-0.0015079
-0.000282506
-0.00142993
-0.000262551
-0.00135956
-0.000236449
-0.00129805
-0.000206711
-0.00124541
-0.000177647
-0.00119928
-0.000157421
-0.00115431
-0.000156009
-0.00110116
-0.000187058
-0.00102605
-0.000265517
-0.000910934
-0.000405759
-0.000735645
-0.000614895
-0.000484073
-0.000876741
-0.000153815
-0.00113978
0.000235753
-0.00132469
0.000634892
-0.00131941
0.000967904
-0.00103827
0.00114964
-0.000459049
0.00111462
0.000331607
0.000846495
0.00114765
0.000413284
0.00169436
-4.70164e-05
0.00175235
-0.00038668
0.00126735
-0.000479569
0.000347817
-0.000284886
-0.000723634
0.000171091
-0.0016957
0.000871285
-0.00258033
0.0017222
-0.0031519
0.00243371
-0.00277834
0.00274788
-0.00164051
0.00225826
0.000772125
0.0001072
0.00613724
-0.00431331
0.014173
-0.0100231
0.0197407
-0.0144672
0.017393
-0.0172386
0.0127486
-0.0196641
0.0104674
-0.0183721
-0.00475479
-0.00373978
-0.0634734
0.0157814
-0.0711464
2.34353e-05
0.0653252
0.0248981
-0.0906407
0.0612598
-0.115718
0.0248538
0.139483
0.00598635
0.0564173
0.00239279
0.00601983
0.00637379
-0.0132134
0.012537
-0.0208398
0.0153121
-0.0114283
0.0153282
-0.00594824
0.00415989
0.0278356
-0.0217068
0.082649
-0.0527765
0.112243
-0.0761571
0.0967502
-0.0877298
0.0585128
-0.0870716
0.0105906
-0.0765954
-0.0317019
-0.0596494
-0.0623147
-0.0369744
-0.0870517
-0.0220301
-0.0600942
-0.0125517
-0.0377454
-0.00134548
-0.040576
0.00701298
-0.0293685
0.0167472
-0.0341541
0.0209943
-0.0166334
0.0179916
0.0075713
0.00964854
0.02698
-0.000555785
0.0387027
-0.00179503
0.00885702
0.00358668
-0.0176619
0.0116741
-0.0294829
-0.0228848
0.0629901
0.0284322
-0.0625004
0.0636376
0.0293777
0.0641665
0.0303012
0.0640923
0.0309424
0.0629903
0.0309922
0.06066
0.0302965
0.057154
0.0289051
0.0527037
0.026974
0.0476275
0.0246891
0.042256
0.0222259
0.0368792
0.0197316
0.0317185
0.0173185
0.0269199
0.0150637
0.0225614
0.0130101
0.0186709
0.0111755
0.0152414
0.00955685
0.0122471
0.00814125
0.00965158
0.00690802
0.0074162
0.00583824
0.00550164
0.00491062
0.00387118
0.00410756
0.00249076
0.00341326
0.0013293
0.00281292
0.000359272
0.00229525
-0.000444304
0.00184905
-0.00110351
0.00146592
-0.00163784
0.0011376
-0.00206464
0.000857798
-0.00239923
0.000619723
-0.00265463
0.000419173
-0.00284453
0.000251187
-0.0029805
0.000111718
-0.0030629
-9.0525e-06
-0.00311143
-0.00010043
-0.00312612
-0.000178533
-0.00311379
-0.000240581
-0.00307943
-0.000289759
-0.00302738
-0.000327812
-0.00296129
-0.000356404
-0.00288448
-0.0003761
-0.00279956
-0.000389363
-0.00270835
-0.0003985
-0.00261258
-0.000403591
-0.00251339
-0.000406712
-0.00241135
-0.000409504
-0.00230717
-0.000411214
-0.00220145
-0.000411905
-0.00209536
-0.000409055
-0.00199073
-0.000400102
-0.00188977
-0.00038346
-0.00179526
-0.000357063
-0.00170974
-0.000321968
-0.0016349
-0.000281553
-0.00157093
-0.000241626
-0.00151512
-0.000213235
-0.00146116
-0.000209977
-0.00139786
-0.000250367
-0.00130861
-0.000354779
-0.00117165
-0.000542727
-0.000962587
-0.00082397
-0.000661417
-0.00117792
-0.000263748
-0.00153746
0.000209528
-0.00179798
0.000703126
-0.00181302
0.00112923
-0.00146438
0.001387
-0.000716832
0.00139502
0.000323576
0.00112627
0.00141638
0.000653077
0.00216754
0.000132876
0.00227253
-0.000256287
0.00165649
-0.000372091
0.000463596
-0.000159262
-0.000936481
0.000350757
-0.00220572
0.00114971
-0.00337928
0.00212059
-0.0041228
0.00290323
-0.00356098
0.00315412
-0.0018914
0.00235734
0.00156893
-0.000489458
0.00898407
-0.00600212
0.0196857
-0.0127297
0.0264682
-0.017503
0.0221664
-0.020231
0.0154765
-0.0229159
0.0131522
-0.0214999
-0.00617081
-0.00718492
-0.0777884
0.0157118
-0.0940433
0.00307907
0.0779583
0.0294745
-0.117036
0.0707478
-0.156991
0.0330303
0.177201
0.00907349
0.0803737
0.00329794
0.0117954
0.00793793
-0.0178535
0.015411
-0.028313
0.0184103
-0.0144275
0.0169626
-0.00450054
0.00139936
0.043399
-0.0304763
0.114525
-0.0658368
0.147604
-0.0902303
0.121144
-0.100906
0.0691889
-0.0983173
0.00800139
-0.0855218
-0.0444975
-0.0662049
-0.0816315
-0.0408928
-0.112364
-0.0245832
-0.0764038
-0.0137656
-0.048563
-0.000733567
-0.053608
0.00914022
-0.0392423
0.0209281
-0.0459419
0.0258407
-0.021546
0.0217907
0.0116213
0.0116471
0.0371236
0.000129773
0.05022
-0.000721082
0.00970787
0.00573949
-0.0241225
0.0151644
-0.0389078
-0.0303702
0.0669862
0.0280317
-0.0665856
0.0674662
0.0288977
0.0679747
0.0297927
0.0682875
0.0306296
0.0680874
0.0311924
0.0670849
0.031299
0.0651112
0.0308788
0.0621404
0.0299448
0.0582703
0.0285592
0.0536854
0.0268108
0.0486171
0.0247999
0.043308
0.0226276
0.037983
0.0203887
0.0328271
0.0181659
0.0279757
0.0160268
0.0235132
0.0140194
0.0194812
0.0121734
0.0158886
0.0105007
0.0127237
0.00900309
0.00996162
0.00767269
0.0075708
0.00649834
0.00551698
0.00546702
0.00376541
0.00456448
0.00228286
0.00377797
0.00103768
0.00309445
1.08298e-06
0.00250278
-0.000853783
0.00199261
-0.00155056
0.00155452
-0.00211086
0.00117996
-0.00255389
0.00086219
-0.00289622
0.000593562
-0.00315303
0.00036855
-0.00334425
0.000182164
-0.00346611
2.13883e-05
-0.00354302
-0.000101644
-0.00357797
-0.000205634
-0.00357796
-0.00028977
-0.00354963
-0.000356149
-0.00349851
-0.000407551
-0.00342948
-0.00044514
-0.0033465
-0.000472346
-0.00325244
-0.000492562
-0.00314994
-0.000506091
-0.00304094
-0.000515714
-0.00292659
-0.000523855
-0.00280807
-0.000529724
-0.00268642
-0.00053355
-0.00256324
-0.000532232
-0.00244089
-0.000522457
-0.00232215
-0.000502198
-0.00221046
-0.000468753
-0.00210904
-0.00042339
-0.00202008
-0.000370515
-0.00194403
-0.000317685
-0.0018779
-0.000279372
-0.00181438
-0.000273499
-0.00174039
-0.000324372
-0.00163634
-0.000458838
-0.00147658
-0.000702491
-0.00123227
-0.00106829
-0.000879129
-0.00153108
-0.000410211
-0.00200639
0.000152501
-0.0023607
0.000750159
-0.00241069
0.00128288
-0.00199711
0.00163401
-0.00106798
0.00170574
0.000251842
0.00145699
0.00166511
0.000959956
0.00266455
0.000387952
0.0028445
-4.62507e-05
0.00209065
-0.000194033
0.000611352
2.49127e-05
-0.00115544
0.000574108
-0.00275492
0.0014585
-0.00426368
0.00253657
-0.00520088
0.00336887
-0.0043933
0.00350694
-0.00202946
0.002311
0.00276489
-0.00135184
0.0126469
-0.0080342
0.0263681
-0.0157027
0.0341366
-0.0205832
0.0270468
-0.0231742
0.0180674
-0.026231
0.0162089
-0.0248198
-0.00758216
-0.0115543
-0.0910539
0.0150257
-0.120623
0.0102209
0.0827633
0.0349945
-0.14181
0.0770532
-0.199049
0.0420148
0.21224
0.0130593
0.109329
0.00453086
0.0203239
0.00962769
-0.0229505
0.0184663
-0.0371517
0.0215935
-0.0175547
0.0180458
-0.000952793
-0.00258098
0.0640259
-0.0407132
0.152657
-0.0794918
0.186382
-0.103859
0.145511
-0.113267
0.0785968
-0.108648
0.00338223
-0.0936888
-0.0594564
-0.0722808
-0.10304
-0.0447404
-0.139904
-0.0272155
-0.0939288
-0.0148109
-0.0609676
-5.90617e-05
-0.0683599
0.0112874
-0.0505888
0.0254068
-0.0600614
0.0311406
-0.0272797
0.0259706
0.0167913
0.0140129
0.0490812
0.00128567
0.0629473
0.000848868
0.0101447
0.00837786
-0.0316515
0.0191632
-0.0496931
-0.0389749
0.071294
0.0276798
-0.0709421
0.0716717
0.02852
0.0720818
0.0293827
0.0724476
0.0302638
0.0726057
0.0310344
0.0723441
0.0315606
0.0714611
0.0317618
0.0698091
0.0315968
0.0673175
0.0310509
0.0639953
0.030133
0.0599227
0.0288725
0.0552373
0.027313
0.0501171
0.0255089
0.0447598
0.0235232
0.0393609
0.0214258
0.0340928
0.0192875
0.0290915
0.0171748
0.0244501
0.0151422
0.0202229
0.0132302
0.016432
0.0114636
0.0130757
0.00985454
0.010137
0.00840566
0.00758897
0.00711254
0.00539969
0.00596738
0.00353491
0.00495936
0.00196049
0.00407729
0.0006434
0.00330971
-0.000447418
0.00264525
-0.00134091
0.00207343
-0.0020635
0.0015848
-0.00263862
0.00116872
-0.0030876
0.000817531
-0.00342821
0.000522732
-0.00368512
0.00027825
-0.00385906
7.22763e-05
-0.0039716
-9.30899e-05
-0.0040332
-0.00022817
-0.00405041
-0.000338955
-0.00403183
-0.000426153
-0.00398474
-0.000492247
-0.00391499
-0.000542097
-0.00382695
-0.000580596
-0.00372463
-0.000608411
-0.00361113
-0.000629217
-0.00348845
-0.000646537
-0.00335853
-0.000659644
-0.00322299
-0.000669079
-0.00308403
-0.000671187
-0.00294467
-0.000661825
-0.00280836
-0.000638506
-0.00267932
-0.00059779
-0.00256156
-0.000541157
-0.00245787
-0.000474202
-0.00236908
-0.000406488
-0.00229197
-0.000356486
-0.00221829
-0.00034719
-0.00213299
-0.000409681
-0.00201346
-0.000578374
-0.00183004
-0.000885923
-0.00154927
-0.00134908
-0.00114225
-0.00193812
-0.000598958
-0.00254969
5.74207e-05
-0.00301709
0.000768512
-0.00312179
0.00142097
-0.00264958
0.00188394
-0.00153097
0.00204111
9.46413e-05
0.00183574
0.00187046
0.0013341
0.00316618
0.00072153
0.00345704
0.000233461
0.00257869
5.46869e-05
0.000790098
0.00025556
-0.00135633
0.000836247
-0.0033356
0.00178993
-0.00521736
0.00295951
-0.00637047
0.00381651
-0.00525031
0.0037856
-0.00199855
0.00208929
0.00446124
-0.00250943
0.0172457
-0.010409
0.0342676
-0.0188852
0.0426128
-0.023632
0.0317936
-0.0260708
0.020506
-0.0296942
0.0198322
-0.0284108
-0.00886565
-0.0163366
-0.103128
0.0141553
-0.151116
0.0211165
0.0758022
0.0415416
-0.162235
0.0801682
-0.237676
0.0514756
0.240933
0.0180113
0.142792
0.00620822
0.0321269
0.011449
-0.0281914
0.0216514
-0.0473542
0.0247799
-0.020683
0.0184401
0.005387
-0.00791007
0.0903761
-0.052255
0.197002
-0.0933548
0.227482
-0.116808
0.168964
-0.124929
0.0867172
-0.118327
-0.00321919
-0.101423
-0.0763605
-0.0782648
-0.126198
-0.0489054
-0.169264
-0.0301061
-0.112728
-0.0157032
-0.0753705
0.000558592
-0.0846217
0.0132767
-0.0633069
0.0300589
-0.0768436
0.0368885
-0.0341093
0.0306025
0.0230773
0.0168618
0.0628219
0.00304227
0.0767668
0.00293879
0.0102481
0.0114994
-0.0402121
0.0236812
-0.061875
-0.0486953
0.0759144
0.0273612
-0.0755959
0.076238
0.0281965
0.0765733
0.0290474
0.0768956
0.0299414
0.0771365
0.0307935
0.0771833
0.0315139
0.0768956
0.0320495
0.0761289
0.0323635
0.0747569
0.0324228
0.0726883
0.0322017
0.0698763
0.0316846
0.0663237
0.0308656
0.0620856
0.0297471
0.0572671
0.0283418
0.0520163
0.0266765
0.0465097
0.0247941
0.0409322
0.0227523
0.035456
0.0206184
0.0302242
0.018462
0.0253418
0.016346
0.0208751
0.0143213
0.0168566
0.0124242
0.0132925
0.0106766
0.0101706
0.00908928
0.00746626
0.00766371
0.00514773
0.00639579
0.0031797
0.0052777
0.00152565
0.00429923
0.000149529
0.00344955
-0.000981443
0.00271581
-0.00190064
0.00208794
-0.00263674
0.00155361
-0.00321602
0.00110195
-0.00366024
0.000722429
-0.00399655
0.000408584
-0.00423551
0.000145875
-0.00439291
-7.07788e-05
-0.00448889
-0.000242996
-0.00452916
-0.000385912
-0.0045252
-0.000496216
-0.00448573
-0.000581559
-0.00441737
-0.000648964
-0.00432602
-0.000699758
-0.00421651
-0.000738729
-0.0040921
-0.000770946
-0.00395584
-0.000795906
-0.00381022
-0.000814691
-0.00365822
-0.000823183
-0.00350369
-0.000816357
-0.00335091
-0.000791282
-0.00320501
-0.000743693
-0.00307091
-0.000675264
-0.00295216
-0.000592956
-0.00285006
-0.000508586
-0.00276133
-0.00044523
-0.00267679
-0.000431734
-0.00257952
-0.000506968
-0.00244384
-0.000714058