/*--------------------------------*- C++ -*----------------------------------*\
| =========                 |                                                 |
| \\      /  F ield         | OpenFOAM: The Open Source CFD Toolbox           |
|  \\    /   O peration     | Version:  2412                                  |
|   \\  /    A nd           | Website:  www.openfoam.com                      |
|    \\/     M anipulation  |                                                 |
\*---------------------------------------------------------------------------*/
FoamFile
{
    version     2.0;
    format      ascii;
    arch        "LSB;label=32;scalar=64";
    class       surfaceScalarField;
    location    "0.105";
    object      ddtCorrDdt0(phi);
}
// * * * * * * * * * * * * * * * * * * * * * * * * * * * * * * * * * * * * * //

dimensions      [0 3 -2 0 0 0 0];

oriented        oriented;

internalField   nonuniform List<scalar> 
24930
(
0.134408
0.104297
-0.238804
0.0806172
0.0543572
0.0612743
0.0204684
0.0511467
0.0102484
0.0429041
0.00723902
0.0374947
0.00415019
0.0336116
0.00288801
0.0307114
0.00220126
0.0285944
0.00185554
0.0270045
0.00184909
0.0256795
0.00191323
0.024256
0.00181817
0.0227798
0.00144385
0.0212888
0.00100036
0.0199108
0.00070948
0.0185985
0.000662866
0.0175188
0.00059224
0.0167084
0.00054365
0.0162153
0.000764685
0.0156604
0.00123993
0.0149895
0.00127548
0.0140692
0.000886158
0.0129351
0.000887276
0.0125873
0.000295962
0.0125304
-0.000220854
0.0115614
0.00129301
0.0115224
0.000751893
0.010871
-0.000551258
0.00847391
0.00197771
0.0100249
-0.00083712
0.00912039
-0.00117539
0.00724367
0.00360066
0.0107961
-0.00240431
0.00634853
0.00107296
0.00733286
0.00254683
0.00925863
-0.00390451
0.00428257
0.00359717
0.00957048
-0.00111584
0.00513216
0.000213571
0.00655663
0.00139696
0.0065648
-0.00144567
0.00432518
0.00190015
0.00784905
-0.00216969
0.00302663
0.00272659
0.00749123
-0.00152344
0.00307102
0.000756841
0.00598178
-0.000275024
0.00431769
5.00764e-05
0.00511647
0.00052205
0.0046375
0.000138293
0.00378185
0.000725896
0.00470342
-0.00111998
0.00330229
0.000654404
0.0052384
-0.000590974
0.00300787
0.00156329
0.00500658
-0.000883553
0.002301
0.000981672
0.00469678
-0.00103318
0.00270507
0.000716127
0.00454305
-0.00035473
0.00242613
0.00109701
0.00413926
-0.00106721
0.00237801
0.000292483
0.00396826
-0.000389334
0.00260163
0.000733108
0.00360245
-0.000392148
0.00228392
0.00042451
0.00337037
-0.000476124
0.00263008
0.000216396
0.00341866
-0.000100295
0.0026316
0.000537126
0.0032992
-0.000369008
0.00274024
-1.68017e-06
0.00314058
5.93448e-05
0.00263581
0.000405619
0.00305092
-0.000461193
0.00264364
-0.000160272
0.00289864
0.000190095
0.0028644
0.000115747
0.00297256
-0.000387644
0.00231317
0.000515225
0.00288836
-0.000175538
0.00251989
-0.000301966
0.00223469
0.000587207
0.00242234
8.30194e-05
0.00219413
-0.000407223
0.00181998
0.000541738
0.00219647
-9.77642e-05
0.00162952
0.000140532
0.00185265
3.13227e-05
0.00144152
0.000242198
0.00157907
-3.03108e-05
0.00135847
9.03396e-05
0.00115359
0.000238961
0.00103018
0.000265865
0.000880992
-0.000158316
0.000679751
0.000211186
0.000281306
0.000573785
0.000217668
0.000147019
-0.000195738
-1.90013e-05
-0.000467596
0.000348601
-0.000665876
0.000668093
-0.000844138
-0.000275877
-0.00128522
0.000477036
-0.00152477
0.000345607
-0.00169884
0.000172346
-0.00252795
0.000647062
-0.00250127
5.31119e-05
-0.00344873
0.00094968
-0.00342549
-4.99652e-05
-0.00445519
0.000952737
-0.00444063
6.29372e-06
-0.00553991
0.00106448
-0.00581687
0.000499748
-0.00689126
0.000858289
-0.00799729
0.000968187
-0.00774591
-4.70768e-05
-0.0106179
0.00299637
-0.00495209
-0.00592167
-0.00384654
0.278984
0.177089
-0.351044
0.21987
0.115245
0.182963
0.0574107
0.157895
0.033819
0.134817
0.0284463
0.120501
0.0169418
0.109476
0.0129522
0.100708
0.0106987
0.0936643
0.00936698
0.087829
0.00842583
0.0827499
0.00750892
0.0779945
0.00635117
0.0735481
0.00506897
0.0693747
0.00411342
0.0655182
0.00358643
0.061899
0.00347158
0.0586862
0.00363611
0.0559157
0.00381486
0.0535842
0.00398333
0.0512587
0.00418821
0.0489458
0.00396125
0.0465036
0.00313219
0.0439524
0.00281032
0.0423341
0.00234703
0.0410007
0.00161146
0.0386703
0.002828
0.0374838
0.0025422
0.0356548
0.000544718
0.0320747
0.00297287
0.03292
0.00126104
0.0309184
-0.000471824
0.028071
0.00494256
0.031115
-0.000287701
0.0253748
0.000701023
0.0258801
0.00464195
0.027164
-0.00294758
0.0211116
0.00354274
0.0262762
0.00138777
0.020767
-0.000479031
0.0218598
0.00291738
0.0212671
-0.00105539
0.0184197
0.0021899
0.0217327
-0.000990251
0.0161033
0.0021878
0.0205767
-4.01051e-06
0.0153887
8.29882e-05
0.0182261
0.00112524
0.0160375
7.66426e-05
0.0166047
0.00125239
0.0157616
0.000334723
0.0146022
0.000924279
0.0153052
-0.000696247
0.0135433
0.000844025
0.01534
0.000247973
0.0127004
0.00163665
0.0146084
-0.000190564
0.0114704
0.000790378
0.0138143
-0.000329753
0.0114344
0.000581324
0.0131912
0.000189073
0.0107228
0.000860108
0.0123829
-0.000784928
0.0103015
2.88344e-05
0.0118328
3.92632e-05
0.0102022
0.000699904
0.0111407
-4.87401e-05
0.00960774
0.000369659
0.0106795
-0.000180437
0.00979985
0.000214773
0.0105886
0.000161183
0.00971085
0.000521921
0.0104174
-0.000301086
0.00981373
-0.000169349
0.0102526
6.0246e-05
0.0097226
0.000211542
0.0101749
-0.0005455
0.00970766
-0.000287144
0.00993266
0.000150474
0.00979986
0.000163471
0.00979339
-0.00032683
0.00891719
0.000505184
0.00936471
0.000106942
0.00873935
-0.000189182
0.00823957
0.000733368
0.00819591
0.000570938
0.00775282
-0.000426713
0.00708875
0.000911881
0.0073107
0.000216783
0.00642201
0.000349044
0.00648597
0.000317832
0.00574448
0.000617448
0.0057098
0.000122983
0.00514535
0.000625054
0.00471796
0.000346932
0.004222
0.000881365
0.00377355
9.47333e-05
0.00313081
0.000921804
0.002254
0.00116038
0.00172968
0.000790949
0.000647767
0.00103181
-1.0502e-05
0.000605695
-0.000988815
0.00215769
-0.00140321
-0.000305925
-0.00264394
0.00172513
-0.00327075
0.000887608
-0.00413119
0.00106953
-0.0058992
0.0021626
-0.00632975
0.00051951
-0.00866493
0.0031995
-0.00894298
0.00017737
-0.0115606
0.0033951
-0.0119158
0.000591838
-0.0148009
0.00368994
-0.0157053
0.00146523
-0.0188334
0.00390185
-0.0216572
0.00375532
-0.0216682
-6.71939e-05
-0.0295651
0.0108789
-0.0138159
-0.021755
-0.0136407
0.382136
0.202372
-0.405792
0.346749
0.152062
0.301043
0.102922
0.262182
0.0715174
0.236816
0.0525215
0.213726
0.0390365
0.195419
0.0306277
0.180604
0.0254225
0.168376
0.022035
0.157984
0.0194468
0.148828
0.0169653
0.140454
0.0144495
0.13282
0.0121323
0.125758
0.0104133
0.11923
0.009495
0.113113
0.0091662
0.10758
0.0091199
0.102668
0.00915931
0.0983083
0.00918742
0.0939795
0.00898075
0.0897621
0.00825575
0.0855927
0.00699552
0.0814195
0.00634229
0.078336
0.00594832
0.0756192
0.0050626
0.0717352
0.0056756
0.069177
0.00554685
0.0661282
0.00323938
0.061145
0.00497452
0.0610864
0.00446593
0.0580052
0.0018143
0.0538261
0.00676044
0.0562534
0.00310355
0.0492044
0.00155388
0.0488617
0.00705932
0.0495933
-0.000356421
0.0422675
0.00400194
0.0471157
0.00464185
0.0405376
-0.000114496
0.041078
0.00481151
0.0398852
0.000367113
0.0362615
0.00294297
0.0393306
0.00106687
0.0327328
0.00205419
0.0371089
0.00217709
0.0310957
-3.01814e-05
0.0337527
0.00303016
0.0310058
0.000702757
0.0312412
0.00243086
0.029973
0.00104278
0.0283931
0.00151865
0.0288422
0.000299537
0.0266379
0.00141716
0.0282617
0.00160725
0.025116
0.0019952
0.0268892
0.00100151
0.023239
0.000894852
0.0254976
0.000884891
0.0226718
0.000772886
0.0243042
0.0011725
0.0214034
0.000881378
0.0229684
-6.24633e-05
0.0205228
4.36033e-05
0.021972
0.000844139
0.020034
0.000905404
0.0208809
0.000619033
0.0190902
0.00051923
0.020124
0.000393438
0.0190837
0.000388174
0.0198637
0.000615527
0.0188779
0.000601223
0.0196242
-9.96175e-05
0.0189771
-0.000270274
0.0194602
0.000132811
0.0188943
5.21421e-05
0.0193774
-0.000526427
0.0188389
-0.000302531
0.0190214
0.000232682
0.01877
0.00039332
0.0186359
-3.9277e-05
0.0175197
0.000704057
0.0178226
0.000673739
0.016939
0.000225288
0.0162075
0.00111469
0.0159285
0.00139552
0.0152588
-0.000181814
0.0143186
0.0015697
0.0143637
0.000813102
0.0131862
0.000838985
0.0130584
0.000872844
0.0120347
0.00128935
0.0117871
0.000542193
0.0109459
0.00148044
0.0102571
0.00072095
0.00945818
0.00184591
0.00870249
0.000681009
0.0076674
0.00206505
0.00636414
0.00217061
0.00536348
0.00195082
0.0037375
0.00266532
0.00260367
0.00132213
0.000992828
0.00434335
0.000262945
-2.79213e-05
-0.0016801
0.00369628
-0.0026213
0.00175461
-0.00416026
0.00266901
-0.00663408
0.00438138
-0.00757778
0.00151712
-0.011084
0.00662889
-0.0116347
0.000687939
-0.0157247
0.00730776
-0.0163335
0.00146396
-0.0208584
0.00794579
-0.0222661
0.00294545
-0.0272313
0.00878665
-0.0315846
0.00808113
-0.0317879
0.000110993
-0.0447995
0.0238786
-0.0199743
-0.046673
-0.0296754
0.457293
0.204181
-0.457419
0.436248
0.174082
0.401738
0.137035
0.366879
0.105545
0.336265
0.0823298
0.309504
0.0651532
0.286611
0.0531681
0.267131
0.0449728
0.250418
0.0390699
0.235807
0.0343761
0.22279
0.0301173
0.210955
0.0260709
0.20023
0.0227045
0.190325
0.0201966
0.181098
0.0185329
0.172402
0.0175764
0.164436
0.0170958
0.157237
0.016735
0.150684
0.0162572
0.144207
0.0154783
0.137941
0.0143038
0.131941
0.0126991
0.126007
0.0116781
0.121248
0.0112219
0.117046
0.0102104
0.111487
0.0101942
0.107323
0.0100622
0.103039
0.00757842
0.0964643
0.00846296
0.0951898
0.00885587
0.0911167
0.00562826
0.0852908
0.00968425
0.0869248
0.0075661
0.0786822
0.00393198
0.0770411
0.0102092
0.0772745
0.00347121
0.0685508
0.00552409
0.0727951
0.00848931
0.065237
0.00149731
0.0649369
0.00727461
0.0631323
0.00273274
0.0585708
0.00443665
0.0613001
0.00376792
0.0536603
0.0026773
0.0577806
0.00483687
0.0509241
0.000603877
0.0532424
0.00537495
0.0499019
0.00198266
0.0496922
0.00409182
0.0479399
0.00228901
0.0458439
0.00259011
0.0459781
0.0017797
0.043253
0.00243661
0.0446388
0.00339572
0.0409112
0.00276738
0.0424838
0.00260461
0.0382515
0.00141186
0.0403617
0.00253004
0.0370284
0.00138986
0.0384762
0.00257378
0.0350788
0.00128697
0.0364982
0.00105286
0.0336366
0.000405811
0.0349608
0.00200251
0.0326703
0.00141762
0.0333908
0.00158352
0.0313069
0.000911179
0.0322819
0.00120697
0.0310613
0.000748619
0.031823
0.00123738
0.030718
0.000796214
0.0315044
0.000201986
0.0308117
-0.000306038
0.0313413
0.000271097
0.0307352
-4.61991e-05
0.0312498
-0.00042298
0.0306327
-0.000200133
0.0307705
0.00045634
0.0303905
0.000827263
0.0301251
0.000471322
0.0287565
0.00115765
0.0289179
0.00152116
0.0277713
0.000947688
0.0268149
0.00175722
0.0263035
0.00255982
0.0254257
0.000313106
0.0242203
0.00252975
0.024115
0.00167182
0.0226699
0.00160767
0.0223783
0.00167943
0.0211048
0.00224422
0.0206751
0.00121086
0.0196073
0.00261723
0.0186935
0.00134744
0.0176604
0.00310632
0.0166525
0.00155599
0.0153056
0.00357298
0.013659
0.00354639
0.0122643
0.00355773
0.0102024
0.00477781
0.00866112
0.0024523
0.00653078
0.00712728
0.00556338
0.000491289
0.00302628
0.00629545
0.00191312
0.00282047
-0.000161364
0.00484014
-0.00314542
0.00711956
-0.0043973
0.00285367
-0.00892493
0.011101
-0.00944419
0.00118917
-0.014909
0.0126041
-0.0154286
0.00228847
-0.0213635
0.0136146
-0.0230113
0.00468911
-0.0293101
0.0150167
-0.0350932
0.0138536
-0.0346839
-0.000306425
-0.0533409
0.0425362
-0.0207782
-0.079323
-0.0506239
0.511072
0.196563
-0.502206
0.503531
0.18186
0.482861
0.15717
0.456394
0.131534
0.428939
0.109503
0.402528
0.091534
0.378187
0.0777014
0.356208
0.0672758
0.336486
0.0591106
0.318675
0.0522306
0.30254
0.0461635
0.287874
0.040785
0.274497
0.0363215
0.262045
0.0328977
0.250339
0.0304628
0.239218
0.0287067
0.228888
0.0274344
0.219408
0.0263826
0.210642
0.0252662
0.201998
0.023867
0.193647
0.0221963
0.185784
0.0202417
0.178053
0.0188716
0.171507
0.018295
0.165731
0.0171407
0.15843
0.0164722
0.152493
0.0161605
0.146919
0.0135356
0.138673
0.0135482
0.13593
0.0145307
0.130874
0.0109608
0.123228
0.013925
0.123841
0.0131099
0.114495
0.00786499
0.111232
0.0142695
0.110907
0.00845953
0.100742
0.00828634
0.104081
0.0129871
0.0956029
0.00441748
0.0942209
0.0104271
0.0917434
0.00603202
0.0861237
0.00676316
0.088375
0.00709152
0.0796483
0.00414787
0.0833359
0.00797571
0.0756232
0.0020558
0.07744
0.00816833
0.0734596
0.00393764
0.0726922
0.00623682
0.0703887
0.00406456
0.0676905
0.00413894
0.0674385
0.00371814
0.0641196
0.00390004
0.0651877
0.00557331
0.060809
0.00395422
0.0621053
0.0045842
0.057227
0.00235163
0.0591145
0.00457991
0.0552118
0.0024418
0.0564053
0.00437113
0.0524481
0.00208187
0.0536643
0.00253889
0.0503323
0.00111093
0.0514798
0.00348296
0.0487893
0.00221537
0.049344
0.00280313
0.046931
0.0015101
0.0478233
0.00220895
0.0464016
0.00124959
0.0471339
0.00196833
0.0458995
0.00105313
0.0467278
0.000543199
0.0459902
-0.000331159
0.0465732
0.0004167
0.0459302
-0.000133471
0.0464871
-0.000287647
0.0457942
-2.21785e-05
0.0458984
0.000775386
0.0453926
0.00142876
0.045008
0.00116337
0.0433889
0.0018336
0.0434289
0.00260337
0.0420296
0.00194474
0.0408743
0.00260948
0.040151
0.00402167
0.0391065
0.000999087
0.0376686
0.00373848
0.037466
0.00272501
0.0358023
0.00259062
0.0354051
0.00266504
0.0339483
0.00340341
0.0334016
0.00205285
0.0321963
0.00393594
0.0311339
0.00213981
0.0299802
0.00454058
0.0288228
0.0026097
0.0272962
0.00530627
0.0254472
0.00513989
0.023804
0.00546062
0.0214836
0.00718736
0.0196838
0.00384123
0.0172225
0.0103183
0.0161875
0.00107755
0.0132437
0.00933152
0.0121806
0.00386018
0.0098186
0.007333
0.00658253
0.0101153
0.00538896
0.00416064
5.23133e-05
0.0164015
4.66316e-05
0.00119724
-0.00655827
0.0190473
-0.00654891
0.00262506
-0.013442
0.0202431
-0.0150255
0.0063906
-0.0218762
0.0218092
-0.0289759
0.0209589
-0.0268485
-0.00242661
-0.0509269
0.0666282
-0.0129041
-0.117418
-0.0747282
0.55283
0.18563
-0.541339
0.554113
0.179954
0.545176
0.165678
0.528894
0.147886
0.508648
0.130228
0.486543
0.114271
0.464174
0.100709
0.442419
0.0893922
0.4218
0.0798084
0.402516
0.0714277
0.38466
0.0639294
0.368241
0.0574514
0.353076
0.0521328
0.338764
0.0478783
0.325089
0.0445015
0.311961
0.0417803
0.299608
0.0396376
0.288103
0.0378143
0.277315
0.0359719
0.266669
0.0339094
0.256367
0.0317609
0.246751
0.0295473
0.237323
0.0279108
0.229003
0.0271595
0.221638
0.0258074
0.212632
0.0244687
0.204859
0.023844
0.197967
0.0211196
0.18809
0.0202935
0.183699
0.0215828
0.177658
0.0178519
0.168157
0.0196082
0.167505
0.0198115
0.157168
0.0134152
0.15207
0.019422
0.151066
0.0146798
0.139501
0.0124752
0.141636
0.0182887
0.132297
0.008754
0.129637
0.0144418
0.126404
0.0103492
0.119644
0.0100771
0.12126
0.0111424
0.111432
0.00662688
0.114499
0.0117082
0.105933
0.00447036
0.107085
0.011505
0.10242
0.00665595
0.100987
0.00893725
0.098067
0.00643139
0.0946902
0.00623519
0.0939803
0.00616667
0.0900043
0.00587767
0.0906709
0.0081758
0.0855813
0.00562331
0.0865225
0.00697119
0.080943
0.00378159
0.0825295
0.00706159
0.078
0.00398606
0.0788642
0.00658539
0.0742868
0.00331022
0.0752373
0.00440883
0.0713809
0.00218927
0.0722943
0.00528395
0.0691549
0.00330599
0.0695007
0.00425906
0.0667225
0.0023016
0.0675059
0.00336402
0.0658625
0.00185929
0.0665535
0.00275952
0.065181
0.00132551
0.0660564
0.000865236
0.0652801
-0.000400633
0.0659316
0.000504682
0.0652661
-0.000268671
0.0658906
-0.000187851
0.0651402
0.000173399
0.0652409
0.00112289
0.0646305
0.00214048
0.0641593
0.00197123
0.062311
0.00267765
0.0622718
0.00384758
0.0606497
0.00315967
0.0593456
0.00359147
0.058453
0.00571112
0.0573098
0.00178681
0.0557
0.00510875
0.0554827
0.00386989
0.0536863
0.00368262
0.0532739
0.00371933
0.0517444
0.00463949
0.0511802
0.00295318
0.0499792
0.00528012
0.0488835
0.00296858
0.0477802
0.00596511
0.0466253
0.00367933
0.0451077
0.00706499
0.0432622
0.00673535
0.0415728
0.00744822
0.0392554
0.00962528
0.037411
0.00526621
0.0349042
0.0136255
0.0340477
0.00147821
0.0309821
0.0125134
0.0302619
0.00457571
0.0279622
0.00979406
0.0247904
0.013047
0.0241542
0.00493519
0.0182896
0.022246
0.0193989
0.000107778
0.0120389
0.0262487
0.0130424
0.00200684
0.00589581
0.0271237
0.0046511
0.00777313
-0.00170144
0.0281126
-0.00998745
0.0292649
-0.00482862
-0.00756608
-0.0338799
0.0957066
0.00744467
-0.158791
-0.0998761
0.589637
0.174553
-0.578915
0.594887
0.173598
0.593899
0.166749
0.586546
0.156096
0.574259
0.143882
0.558376
0.131418
0.540288
0.119614
0.521121
0.108743
0.501812
0.0987811
0.482988
0.0897658
0.465155
0.0817596
0.448443
0.0748287
0.432663
0.0689431
0.417448
0.0639779
0.402636
0.0597475
0.388235
0.0561264
0.374478
0.0530996
0.361455
0.0504575
0.349079
0.0479052
0.33683
0.0452833
0.324922
0.042792
0.313839
0.0404469
0.302972
0.0386141
0.293042
0.0376312
0.284196
0.0360467
0.273658
0.0340665
0.264121
0.0330433
0.255971
0.030271
0.244626
0.028668
0.238502
0.030009
0.231521
0.0262754
0.220256
0.0267691
0.21814
0.027712
0.206972
0.0206205
0.199932
0.0258048
0.19812
0.0221931
0.185279
0.018214
0.185945
0.0245244
0.175822
0.0145736
0.171742
0.0194797
0.167677
0.0157807
0.159735
0.0145369
0.160564
0.0160666
0.149658
0.0102784
0.151918
0.016185
0.142526
0.00799509
0.142857
0.0155078
0.137479
0.0102394
0.135284
0.0122946
0.131695
0.0094862
0.12758
0.00899172
0.126349
0.00922953
0.121671
0.00849048
0.121858
0.0112955
0.116016
0.00789221
0.116528
0.00985061
0.11021
0.00581558
0.111419
0.0100491
0.106218
0.00612084
0.106679
0.00927877
0.101429
0.00505609
0.102051
0.00671731
0.0976216
0.00371302
0.0982409
0.00744479
0.0946062
0.00473684
0.0946979
0.00597008
0.0915202
0.00330779
0.0921674
0.00466958
0.0902834
0.0025766
0.0909218
0.00358734
0.0894064
0.00158878
0.0903392
0.00112466
0.0895393
-0.000557965
0.0902864
0.000473833
0.0896281
-0.000510912
0.0903653
-0.000198773
0.0895956
0.000319411
0.0897479
0.00141606
0.0890774
0.00288895
0.0885791
0.00280839
0.0865462
0.0036179
0.0864961
0.00515711
0.0847052
0.00451527
0.0833304
0.00459698
0.0823353
0.00753348
0.0811911
0.00255866
0.0795011
0.00652182
0.0793834
0.00497044
0.0775804
0.00473803
0.0772773
0.00469541
0.0758339
0.00577598
0.0753874
0.00375916
0.0743856
0.00643775
0.0734129
0.00366115
0.0725862
0.00713891
0.0716383
0.00454767
0.0703685
0.0085965
0.0687969
0.00805046
0.0673106
0.00925983
0.0653329
0.0117456
0.0637165
0.00644385
0.0615257
0.0166792
0.0611708
0.00136248
0.0583439
0.0154724
0.0583201
0.00460656
0.0565241
0.0117768
0.0537442
0.0155797
0.0542942
0.00454307
0.0481892
0.0283419
0.051093
-0.00276311
0.0435158
0.0336655
0.04589
5.39941e-05
0.0394577
0.033285
0.0387035
0.0086815
0.034091
0.0326825
0.024739
0.0386486
0.0340972
-0.0168974
0.00148003
0.128364
0.0433202
-0.200647
-0.124183
0.625582
0.165182
-0.617099
0.631772
0.166569
0.634998
0.164457
0.633756
0.159157
0.627929
0.151648
0.618066
0.142789
0.604965
0.133237
0.589655
0.123555
0.573282
0.114256
0.556654
0.105621
0.540431
0.0979007
0.524817
0.0911371
0.509664
0.0852144
0.494658
0.0799267
0.47973
0.0751343
0.464989
0.0708248
0.450663
0.0670567
0.436867
0.0637296
0.423571
0.0606224
0.410337
0.0576
0.397376
0.0548968
0.385288
0.0525197
0.373407
0.0505514
0.362203
0.0493026
0.35214
0.0474797
0.340404
0.0449294
0.32934
0.0434602
0.32011
0.0406993
0.307603
0.0384276
0.299799
0.0396089
0.292002
0.0360286
0.279211
0.0352913
0.275519
0.0367099
0.263751
0.0293714
0.254792
0.0334097
0.252075
0.0309094
0.238175
0.0254654
0.237179
0.0316921
0.226389
0.0218131
0.220823
0.025605
0.215879
0.0223359
0.206769
0.020207
0.206685
0.0219371
0.194772
0.0151698
0.196063
0.0214852
0.18591
0.0126887
0.185288
0.0202402
0.179191
0.014728
0.176166
0.0163691
0.171882
0.0132929
0.166997
0.0124965
0.165204
0.012997
0.159807
0.0118444
0.159455
0.0150193
0.152848
0.0108687
0.152875
0.0133073
0.145809
0.00856113
0.146577
0.013617
0.140683
0.00894148
0.140676
0.0125189
0.134719
0.00741158
0.134954
0.00953562
0.129916
0.00577508
0.130184
0.0100306
0.126015
0.00658395
0.125808
0.00798627
0.122202
0.00458415
0.122686
0.00615579
0.120546
0.00343266
0.121123
0.00445664
0.119465
0.00184426
0.120474
0.00129779
0.119676
-0.000830409
0.120561
0.000270904
0.119958
-0.000915359
0.120877
-0.000400257
0.12015
0.000343098
0.120438
0.00155913
0.11978
0.0035878
0.119345
0.00357027
0.117197
0.00456938
0.117233
0.0064156
0.115352
0.00591916
0.114013
0.00549918
0.113007
0.00937514
0.111986
0.0031766
0.110338
0.00783288
0.110461
0.00586662
0.108818
0.0055754
0.108776
0.00541999
0.107624
0.00659192
0.107456
0.00429304
0.106899
0.00714776
0.106236
0.0040145
0.105958
0.00777497
0.105466
0.00495338
0.104715
0.0096148
0.103744
0.00874737
0.102729
0.0106144
0.101487
0.013142
0.100397
0.0070647
0.0989337
0.0190577
0.0994464
0.000356034
0.0972647
0.0177922
0.0983127
0.00356949
0.0975228
0.0127723
0.0954197
0.0174201
0.0978621
0.00227161
0.0917689
0.0344313
0.0970999
-0.00805327
0.089998
0.0405992
0.0938782
-0.00337308
0.08936
0.0375232
0.089043
0.00916455
0.0874585
0.0342282
0.0771861
0.0489608
0.0916368
-0.0313199
0.0571668
0.162887
0.0975846
-0.241042
-0.145739
0.663165
0.158309
-0.657029
0.668992
0.160814
0.673699
0.161339
0.675549
0.159361
0.673765
0.155105
0.668263
0.149015
0.659468
0.141685
0.648209
0.133726
0.635434
0.125775
0.62195
0.118279
0.608359
0.111509
0.594839
0.105423
0.581268
0.0998375
0.567414
0.0945441
0.553323
0.0895231
0.539175
0.0848675
0.525182
0.0806819
0.511459
0.0769472
0.498035
0.073513
0.48457
0.0702869
0.471249
0.0675233
0.458752
0.0652091
0.446411
0.0631593
0.434423
0.0616159
0.423549
0.0595483
0.4111
0.0565268
0.398922
0.0546104
0.388916
0.0519416
0.3757
0.0491707
0.366429
0.0500339
0.358028
0.0467592
0.344109
0.0449164
0.338854
0.0465557
0.326792
0.0393946
0.316102
0.042073
0.312441
0.0405792
0.297804
0.03404
0.295063
0.0396715
0.283775
0.0302848
0.276765
0.032776
0.270945
0.0299187
0.260756
0.0270292
0.259684
0.0287159
0.246902
0.021241
0.247103
0.0275801
0.236304
0.0184963
0.234641
0.0256773
0.227857
0.0200721
0.223978
0.0211474
0.219009
0.0178444
0.213367
0.0167662
0.211004
0.017492
0.204916
0.0159729
0.203995
0.0193678
0.196658
0.0145887
0.196174
0.017365
0.188394
0.0120593
0.188684
0.0177839
0.18211
0.0124866
0.181592
0.0163299
0.174922
0.010431
0.174731
0.0129115
0.169069
0.00845183
0.168936
0.0131009
0.164207
0.00892422
0.163665
0.0103667
0.159609
0.00620068
0.159908
0.00787094
0.157504
0.00447872
0.158014
0.00539143
0.156221
0.002112
0.157331
0.00137516
0.156576
-0.00123297
0.157655
-0.000152679
0.157178
-0.00153546
0.158374
-0.000879143
0.157778
0.000165497
0.158318
0.00144297
0.157772
0.00413872
0.157523
0.00413517
0.155358
0.00543748
0.155604
0.00749142
0.153735
0.00726969
0.152564
0.00615792
0.151656
0.0111115
0.150905
0.00349361
0.149444
0.00888076
0.149965
0.00638846
0.148681
0.00598779
0.149067
0.00570949
0.14845
0.00683389
0.148734
0.00437063
0.148899
0.00711783
0.14875
0.00381371
0.149314
0.0075661
0.149558
0.0046074
0.149598
0.00983406
0.149589
0.00845257
0.149295
0.0112504
0.149213
0.013382
0.148933
0.00683397
0.148608
0.0203411
0.150357
-0.00191815
0.149217
0.0190675
0.151681
0.00111202
0.152415
0.0122559
0.151159
0.0183898
0.156214
-0.00260615
0.150302
0.040338
0.158502
-0.0162096
0.152722
0.046196
0.157858
-0.00802856
0.1566
0.0384867
0.156436
0.00950126
0.159006
0.0316204
0.148027
0.0599839
0.16778
-0.051051
0.133644
0.197088
0.170807
-0.278145
-0.163481
0.703685
0.15374
-0.699297
0.708762
0.156772
0.713276
0.158434
0.715912
0.158094
0.715878
0.155749
0.712919
0.151616
0.707175
0.146153
0.699281
0.140019
0.689896
0.133808
0.679633
0.127925
0.668885
0.122471
0.657772
0.117335
0.646193
0.112327
0.634042
0.107329
0.621436
0.102421
0.60858
0.0977435
0.595653
0.0934367
0.582743
0.0895519
0.569925
0.0860228
0.556962
0.0828087
0.543983
0.0801358
0.531687
0.0779396
0.519472
0.0758232
0.507268
0.0739543
0.496075
0.0716421
0.483492
0.0682905
0.470751
0.0659862
0.460372
0.0634956
0.447005
0.0604438
0.436639
0.0608781
0.427921
0.0580256
0.413421
0.0552906
0.406757
0.0569014
0.394768
0.0502938
0.382709
0.0515277
0.378143
0.0508557
0.363195
0.0436514
0.358772
0.0482822
0.347214
0.039722
0.338927
0.0408743
0.332312
0.0383582
0.321218
0.0348523
0.319157
0.0362822
0.305719
0.0283452
0.304779
0.0343688
0.293504
0.0252876
0.290778
0.0317367
0.28339
0.0261573
0.27869
0.0265559
0.273102
0.0230679
0.26677
0.0217399
0.263877
0.0226522
0.257182
0.0208122
0.255711
0.0242646
0.247734
0.0189819
0.246762
0.0219501
0.238361
0.0162475
0.238176
0.0224762
0.230988
0.0167012
0.229953
0.0206567
0.222608
0.0140944
0.221976
0.0168344
0.21571
0.0117686
0.215146
0.0166774
0.209853
0.0118046
0.208951
0.0131517
0.204441
0.00821635
0.204538
0.00985919
0.20187
0.00576632
0.202315
0.00641774
0.200401
0.00241586
0.201651
0.00134861
0.200988
-0.00177919
0.202338
-0.000850081
0.202075
-0.00243055
0.203671
-0.00173645
0.203319
-0.000303441
0.204259
0.000941427
0.203954
0.00442951
0.204045
0.00436313
0.201984
0.00611983
0.202586
0.00824171
0.200849
0.00846202
0.199995
0.00642866
0.199307
0.0126163
0.198977
0.00336919
0.197863
0.00950153
0.198937
0.00637661
0.198233
0.00575909
0.199207
0.00539351
0.19939
0.00623576
0.200283
0.00382784
0.201459
0.00605317
0.202017
0.00285887
0.203702
0.00622457
0.204967
0.00321829
0.206026
0.00901555
0.207354
0.00678691
0.207962
0.0109767
0.209445
0.0120527
0.210198
0.00552152
0.211351
0.0201788
0.214658
-0.00578554
0.214875
0.0189722
0.219001
-0.00301866
0.221737
0.00974475
0.221317
0.0184916
0.229626
-0.0107396
0.223977
0.0459757
0.23513
-0.0273223
0.231672
0.0494514
0.237348
-0.0132041
0.240697
0.0348259
0.240244
0.010129
0.247711
0.0241137
0.236381
0.0713568
0.261084
-0.0757466
0.22956
0.228686
0.262583
-0.311071
-0.176942
0.747614
0.150694
-0.744179
0.751644
0.153811
0.755106
0.155735
0.757267
0.156114
0.757526
0.154829
0.755704
0.152109
0.751913
0.148328
0.746505
0.144015
0.739824
0.139593
0.732177
0.135298
0.72379
0.13112
0.714755
0.126947
0.705032
0.122636
0.694629
0.118157
0.683694
0.113623
0.672421
0.109194
0.660944
0.105034
0.649303
0.101248
0.637595
0.0978415
0.625668
0.0948019
0.613559
0.092281
0.601931
0.0901673
0.590321
0.0879501
0.578428
0.0857363
0.567394
0.0832002
0.555247
0.0796932
0.542545
0.0771211
0.532218
0.0748809
0.51928
0.0717811
0.508298
0.0717301
0.499581
0.069358
0.485132
0.066015
0.477348
0.0673694
0.465813
0.061606
0.452903
0.0614548
0.447555
0.0613509
0.432792
0.0539428
0.426911
0.0573033
0.415361
0.0497961
0.406094
0.0497111
0.398846
0.0474282
0.387116
0.0434582
0.384152
0.044467
0.370355
0.0362922
0.368304
0.0417179
0.356787
0.0328943
0.353054
0.0383106
0.345201
0.0328322
0.339783
0.0324824
0.333703
0.0288418
0.326815
0.0272912
0.323485
0.0283355
0.316331
0.0262042
0.314386
0.0295358
0.305932
0.0238711
0.304556
0.0268904
0.2957
0.0209585
0.295101
0.0275241
0.287428
0.0214321
0.285926
0.0253575
0.278
0.0182967
0.276959
0.0212216
0.270153
0.0156826
0.269159
0.0207249
0.26333
0.0152211
0.262065
0.016342
0.257117
0.0106577
0.257008
0.0121404
0.25409
0.00732793
0.254479
0.00754604
0.252469
0.00276763
0.253904
0.00119694
0.253398
-0.00249374
0.255106
-0.00189012
0.255164
-0.00367488
0.257308
-0.00309594
0.257335
-0.00117149
0.25885
-9.32898e-05
0.258936
0.00433132
0.259549
0.00409404
0.257729
0.00650699
0.258847
0.00851692
0.257371
0.00939429
0.256988
0.00617335
0.25664
0.0137725
0.256871
0.00268818
0.256258
0.00954523
0.258013
0.00570733
0.258108
0.0046862
0.259794
0.00434305
0.261036
0.00454615
0.262655
0.00255045
0.2651
0.00369601
0.26652
0.000994837
0.269539
0.00353389
0.272093
0.000521926
0.274301
0.00702209
0.277312
0.00340254
0.278888
0.00972175
0.28227
0.00881766
0.284175
0.00300313
0.287007
0.0183633
0.292098
-0.011473
0.293846
0.0173253
0.29972
-0.00891421
0.304842
0.00485213
0.305027
0.0179492
0.317064
-0.0226072
0.311703
0.0513137
0.325425
-0.0410111
0.325408
0.0492405
0.330514
-0.0177941
0.339613
0.0253951
0.338443
0.0114685
0.351016
0.0114977
0.339866
0.0825454
0.368627
-0.104523
0.341789
0.255603
0.370468
-0.339626
-0.186442
0.794764
0.14836
-0.791973
0.797446
0.151237
0.799658
0.153143
0.800821
0.153841
0.800798
0.153352
0.799465
0.151849
0.796918
0.149634
0.793219
0.147021
0.78841
0.144239
0.782533
0.14134
0.775752
0.138276
0.768158
0.134956
0.759809
0.131316
0.750808
0.127402
0.741315
0.123354
0.731512
0.119336
0.721479
0.115506
0.711195
0.111987
0.700754
0.108834
0.690059
0.10603
0.679041
0.103631
0.668287
0.101505
0.657532
0.099134
0.64631
0.096576
0.635785
0.0938488
0.624502
0.0903603
0.612365
0.0876678
0.602436
0.0857121
0.590404
0.0827677
0.579306
0.0822244
0.570861
0.0803171
0.557078
0.0766817
0.548543
0.0775932
0.537789
0.0728387
0.524631
0.0714923
0.518684
0.0716532
0.504613
0.0644789
0.497636
0.066458
0.4864
0.0601081
0.476547
0.0590073
0.468903
0.056839
0.45688
0.0525575
0.453182
0.0530465
0.439394
0.0448458
0.436351
0.049454
0.424874
0.0410985
0.420275
0.0452524
0.41215
0.0399011
0.406186
0.0387695
0.399801
0.0349961
0.392554
0.0332346
0.388938
0.0343313
0.381536
0.0319145
0.379256
0.0349338
0.370558
0.0290009
0.36893
0.0319446
0.359863
0.0259519
0.358979
0.0326909
0.351029
0.0264536
0.349175
0.0302257
0.340837
0.022864
0.339474
0.025929
0.332251
0.0200879
0.330868
0.025151
0.324574
0.0191138
0.322972
0.0198908
0.317632
0.0135091
0.317331
0.0146993
0.314193
0.0091658
0.314545
0.00876061
0.312473
0.00315712
0.314148
0.000876918
0.31387
-0.00342049
0.316034
-0.00336383
0.316531
-0.00536269
0.319388
-0.00510873
0.319942
-0.002568
0.322224
-0.00183216
0.322866
0.00369828
0.324198
0.00314845
0.322765
0.00648388
0.32456
0.0081668
0.323466
0.00997423
0.323696
0.00527278
0.323789
0.0144824
0.324685
0.00138018
0.324702
0.00889447
0.327208
0.0043185
0.328292
0.00260512
0.330752
0.00249867
0.333274
0.0015609
0.335666
0.000500243
0.339561
-0.000129532
0.341939
-0.00186347
0.346385
-0.000596676
0.350444
-0.00369017
0.353787
0.00386681
0.358765
-0.00197939
0.361226
0.00756674
0.366716
0.0034704
0.369776
-0.00072145
0.374285
0.0148896
0.381264
-0.0190811
0.384536
0.0141305
0.392053
-0.0164707
0.399815
-0.00267727
0.400173
0.0171905
0.416165
-0.0384398
0.411141
0.0563015
0.426572
-0.0564197
0.43115
0.0444077
0.434415
-0.0205342
0.449986
0.00947067
0.44791
0.0137056
0.465265
-0.00590292
0.454948
0.0928931
0.486769
-0.136389
0.466232
0.27622
0.490924
-0.36418
-0.192798
0.844685