/*--------------------------------*- C++ -*----------------------------------*\
| =========                 |                                                 |
| \\      /  F ield         | OpenFOAM: The Open Source CFD Toolbox           |
|  \\    /   O peration     | Version:  2412                                  |
|   \\  /    A nd           | Website:  www.openfoam.com                      |
|    \\/     M anipulation  |                                                 |
\*---------------------------------------------------------------------------*/
FoamFile
{
    version     2.0;
    format      ascii;
    arch        "LSB;label=32;scalar=64";
    class       volVectorField;
    location    "0.495";
    object      ddt0(U);
}
// * * * * * * * * * * * * * * * * * * * * * * * * * * * * * * * * * * * * * //

dimensions      [0 1 -2 0 0 0 0];

internalField   nonuniform List<vector> 
12600
(
(4.08463 -3.27403e-18 -7.89436)
(-5.58754 -7.23218e-18 -2.49258)
(-0.553895 -1.06419e-17 0.518081)
(0.751389 0 -0.144131)
(-0.158143 -1.16496e-17 -0.318319)
(-0.367364 -1.18526e-17 0.106094)
(-0.681359 0 0.112028)
(-1.35678 0 -0.0336943)
(-1.77062 4.52263e-17 -0.0404652)
(-1.7757 0 -0.0392755)
(-1.44633 -2.06162e-17 -0.0626948)
(-0.760929 -1.88252e-17 -0.028663)
(0.178006 1.66478e-17 0.0626424)
(1.13012 0 0.1463)
(1.94749 1.14484e-17 0.18852)
(2.6591 0 0.207202)
(3.33882 -2.58392e-17 0.242177)
(3.93427 0 0.310307)
(4.2319 3.24263e-18 0.374633)
(4.02181 -1.75349e-18 0.372297)
(3.31719 6.64639e-18 0.284326)
(2.36849 -4.89417e-20 0.161521)
(1.4165 0 0.0668431)
(0.458861 -3.21454e-17 0.00296552)
(-0.674765 0 -0.0842137)
(-2.00288 0 -0.228555)
(-3.21039 -2.73835e-17 -0.386108)
(-3.85102 0 -0.470365)
(-3.74177 -1.27594e-19 -0.440319)
(-3.12282 9.10598e-18 -0.340713)
(-2.3917 5.41403e-18 -0.252646)
(-1.71834 3.01956e-18 -0.204875)
(-0.962528 -1.43207e-18 -0.152391)
(0.0503924 -9.7876e-19 -0.0414907)
(1.20657 -5.32505e-19 0.122515)
(2.13331 1.47268e-18 0.268476)
(2.53521 0 0.332887)
(2.43576 -6.10618e-18 0.319159)
(2.10584 0 0.27404)
(1.74102 1.32214e-17 0.234832)
(1.28783 0 0.185071)
(0.617131 8.93097e-20 0.0842772)
(-0.247605 0 -0.0616775)
(-1.06926 -1.22883e-19 -0.204699)
(-1.57731 2.33827e-17 -0.293754)
(-1.72798 -8.65308e-18 -0.312714)
(-1.67919 -5.43259e-18 -0.29861)
(-1.55752 0 -0.280617)
(-1.35358 0 -0.24201)
(-0.973812 -3.12386e-17 -0.161786)
(-0.40837 -6.36846e-17 -0.0383741)
(0.16744 -5.88638e-17 0.0909688)
(0.54457 1.47058e-19 0.169456)
(0.665862 -4.71079e-17 0.186746)
(0.641947 0 0.171176)
(0.585273 4.73855e-17 0.153007)
(0.497756 4.65028e-17 0.137676)
(0.329006 4.31475e-17 0.0988654)
(0.0497497 0 0.0340057)
(-0.239952 0 -0.0332373)
(-0.379373 0 -0.0749635)
(-0.354709 -5.96154e-17 -0.0686406)
(-0.246529 0 -0.0415734)
(-0.135746 0 -0.016751)
(-0.0703324 1.09169e-16 0.0199783)
(0.0162831 0 0.0645809)
(0.166036 0 0.127526)
(0.336828 0 0.197935)
(0.449208 9.17693e-18 0.223391)
(0.420617 -4.99503e-17 0.197373)
(0.28746 -7.37698e-17 0.134922)
(0.145946 7.16932e-20 0.0509751)
(0.00697516 7.65995e-17 -0.0147835)
(-0.112904 0 -0.0649658)
(-0.253399 -4.39134e-17 -0.10304)
(-0.420848 0 -0.124378)
(-0.519591 0 -0.133215)
(-0.499839 0 -0.11598)
(-0.382202 -2.54908e-19 -0.0763412)
(-0.212096 6.48464e-17 -0.0409329)
(-0.0951405 6.28401e-17 -0.00874663)
(-0.029517 -6.48724e-17 0.00191071)
(0.0220908 -7.76176e-17 0.00766852)
(0.124191 0 0.0387206)
(0.241068 0 0.0814716)
(0.289188 2.14439e-16 0.112863)
(0.200254 -3.84019e-16 0.100088)
(0.0839514 3.75238e-16 0.0583651)
(-0.0725273 1.74604e-16 0.0154786)
(-0.135949 0 -0.00392179)
(-0.142996 -3.44221e-16 -0.0203882)
(-0.137443 1.7838e-16 -0.0389453)
(-0.208366 -2.16547e-16 -0.0677206)
(-0.245312 5.74481e-16 -0.0944521)
(-0.24307 0 -0.069927)
(-0.172548 0 -0.0258315)
(-0.146784 0 0.00198511)
(-0.0965914 0 0.0483774)
(0.0226459 0 0.0646166)
(0.0633492 0 0.0815475)
(0.0528752 -2.29708e-16 0.0452563)
(-0.0785266 -4.75164e-16 0.0467285)
(-0.200448 -2.77116e-16 0.0385941)
(-0.611263 0 0.114203)
(-0.16187 0 0.035517)
(1.74664 0 -0.309206)
(2.93034 3.80835e-17 -0.519433)
(0.827401 1.36227e-16 -0.164863)
(-2.58828 -2.20346e-16 0.436445)
(-4.12808 0 0.734255)
(-3.35634 3.41642e-16 0.605528)
(-1.88221 0 0.354339)
(-0.0908416 3.36624e-16 0.0545425)
(0.574966 -4.89419e-16 -0.0362055)
(0.470527 5.81186e-16 -0.0553357)
(0.0656545 7.15845e-16 0.00623687)
(-0.616723 -7.30115e-16 0.131004)
(-1.00826 -3.6078e-20 0.196656)
(-0.849871 -6.36917e-16 0.166543)
(-1.04074 0 0.206053)
(1.70836 3.30496e-18 -10.6427)
(-0.29407 0 -3.14193)
(0.951918 1.07713e-17 0.0486543)
(0.333489 0 -0.528361)
(0.0867221 1.18042e-17 -0.323054)
(-0.0302677 2.39706e-17 0.233705)
(-0.686248 1.18108e-17 0.151121)
(-1.3877 0 0.00994298)
(-1.74873 -2.46619e-20 0.0591832)
(-1.78508 2.20959e-17 0.0698379)
(-1.44347 -2.07512e-17 0.0611505)
(-0.691099 -1.89442e-17 0.163226)
(0.282548 1.67098e-17 0.331296)
(1.21639 -1.41504e-17 0.438914)
(2.00725 -2.30995e-17 0.443069)
(2.72297 0 0.400044)
(3.43423 9.49219e-20 0.397714)
(4.04717 -8.19322e-18 0.46822)
(4.30804 -3.28986e-18 0.538299)
(4.01454 0 0.493078)
(3.23277 0 0.307866)
(2.25602 1.10692e-17 0.0865312)
(1.31523 0 -0.0555047)
(0.364917 1.6303e-17 -0.125038)
(-0.787283 -3.38072e-17 -0.234266)
(-2.13727 0 -0.449741)
(-3.33388 2.73497e-17 -0.688107)
(-3.92593 0 -0.790544)
(-3.76353 -1.46193e-17 -0.691096)
(-3.12225 -1.82917e-17 -0.484483)
(-2.40036 -1.08813e-17 -0.324865)
(-1.73703 -3.05637e-18 -0.261398)
(-0.964292 1.44913e-18 -0.202889)
(0.0887893 1.94947e-18 -0.0457092)
(1.27874 1.11648e-18 0.201461)
(2.21037 0 0.414787)
(2.59055 0 0.488599)
(2.46194 -1.21419e-19 0.441114)
(2.11075 0 0.364613)
(1.7289 -1.33476e-17 0.321622)
(1.25433 0 0.27534)
(0.559623 -4.10146e-17 0.145064)
(-0.321506 0 -0.0673295)
(-1.14107 -3.52731e-17 -0.278694)
(-1.632 0 -0.404743)
(-1.76608 8.7131e-18 -0.422236)
(-1.70969 0 -0.393342)
(-1.58814 0 -0.370282)
(-1.38374 2.66548e-17 -0.324299)
(-0.995972 0 -0.212692)
(-0.419629 0 -0.0322422)
(0.162971 0 0.156114)
(0.541848 5.18554e-17 0.266006)
(0.661859 9.42668e-17 0.280464)
(0.637765 0 0.248037)
(0.580999 0 0.222148)
(0.487879 -4.63413e-17 0.206657)
(0.307124 -4.31454e-17 0.15749)
(0.013089 0 0.0690655)
(-0.286184 0 -0.0237208)
(-0.426846 0 -0.078704)
(-0.396605 0 -0.0658465)
(-0.282514 -5.77623e-17 -0.0250045)
(-0.166779 5.70974e-17 0.0080194)
(-0.100187 -1.08309e-16 0.0529939)
(-0.0111242 0 0.111855)
(0.138067 0 0.200484)
(0.308374 0 0.300369)
(0.412521 9.90986e-19 0.340215)
(0.375516 4.94728e-17 0.299538)
(0.230626 7.29978e-17 0.205779)
(0.0843366 -1.6172e-16 0.0838057)
(-0.0609545 -1.02165e-19 -0.0119895)
(-0.181547 6.08695e-17 -0.0830928)
(-0.330477 4.32885e-17 -0.138956)
(-0.503812 0 -0.175491)
(-0.611559 0 -0.188507)
(-0.592811 0 -0.166299)
(-0.478389 5.16049e-17 -0.108707)
(-0.304996 0 -0.0528188)
(-0.193247 0 -0.00308516)
(-0.125505 6.34918e-17 0.014739)
(-0.0803538 7.58846e-17 0.0253811)
(0.0309802 0 0.062436)
(0.139542 0 0.124284)
(0.196908 0 0.165492)
(0.0927448 3.73982e-16 0.145184)
(-0.00698865 1.75288e-19 0.0810492)
(-0.171404 1.69809e-16 0.0265884)
(-0.217405 -1.6498e-16 -0.000933411)
(-0.252231 3.3389e-16 -0.0143684)
(-0.252694 1.73336e-16 -0.0404216)
(-0.359832 4.19569e-16 -0.0751411)
(-0.403152 0 -0.114238)
(-0.41871 0 -0.0815041)
(-0.354847 0 -0.0201676)
(-0.353367 0 0.0327356)
(-0.400158 5.00741e-16 0.111519)
(-0.257254 0 0.13104)
(-0.160741 0 0.150533)
(-0.0538285 -2.19708e-16 0.0851551)
(-0.35075 2.27488e-16 0.113709)
(-0.650587 5.30127e-16 0.134279)
(-1.66439 -3.21516e-16 0.328496)
(-0.254507 0 0.0358818)
(4.95489 0 -0.97773)
(7.73993 0 -1.45202)
(1.62264 -6.49139e-17 -0.242502)
(-7.67635 2.09705e-16 1.49955)
(-11.6418 0 2.19394)
(-9.31059 -6.49524e-16 1.72264)
(-5.22286 -3.12921e-16 0.963423)
(-0.444157 -6.38942e-16 0.0940604)
(1.20845 0 -0.154863)
(1.06104 0 -0.157989)
(-0.166924 6.78748e-16 0.0725627)
(-2.08268 0 0.427184)
(-3.10864 7.12916e-16 0.602259)
(-2.69868 6.01598e-16 0.523336)
(-3.27519 0 0.638485)
(2.09243 0 -3.61554)
(1.76377 0 -1.54371)
(1.01549 1.08651e-17 -1.06854)
(0.581045 0 -0.538725)
(0.456631 0 0.117617)
(0.0283006 -1.14523e-17 0.254747)
(-0.717727 -1.11849e-17 0.1601)
(-1.32977 0 0.206033)
(-1.67986 -2.10765e-19 0.272727)
(-1.72145 -2.09328e-17 0.290239)
(-1.33282 3.90683e-17 0.370627)
(-0.547451 1.79495e-17 0.540679)
(0.392468 -2.44775e-19 0.687063)
(1.25403 1.34086e-17 0.707725)
(1.98611 1.08806e-17 0.603434)
(2.68155 -8.35615e-18 0.454768)
(3.39817 1.23051e-17 0.350673)
(4.00578 7.76421e-18 0.310614)
(4.22755 0 0.261154)
(3.88025 0 0.115318)
(3.07294 6.46206e-18 -0.117244)
(2.11656 1.03663e-17 -0.32533)
(1.21467 0 -0.415734)
(0.283556 0 -0.418135)
(-0.873108 3.20343e-17 -0.445721)
(-2.21887 0 -0.55411)
(-3.37559 -5.14749e-17 -0.664386)
(-3.90473 1.95001e-17 -0.646302)
(-3.69615 0 -0.4673)
(-3.05037 8.59285e-18 -0.232555)
(-2.35238 5.11559e-18 -0.0789003)
(-1.70936 0 -0.0378511)
(-0.939009 -1.35059e-18 -0.0191571)
(0.114559 -9.08678e-19 0.0661978)
(1.28584 1.05778e-19 0.204285)
(2.17888 0 0.297594)
(2.52195 0 0.278091)
(2.37812 5.95684e-18 0.18754)
(2.03394 0 0.11925)
(1.66551 0 0.117641)
(1.19928 0 0.13867)
(0.511515 0 0.102858)
(-0.354487 0 -0.000355569)
(-1.14963 0 -0.106229)
(-1.61684 0 -0.155973)
(-1.73869 -8.00755e-18 -0.140807)
(-1.68183 -5.50489e-18 -0.106866)
(-1.56474 0 -0.0971907)
(-1.36547 -2.52179e-17 -0.0907393)
(-0.985775 0 -0.0460439)
(-0.425668 0 0.0399443)
(0.133392 5.51036e-17 0.125831)
(0.490956 0 0.164163)
(0.599097 -4.44783e-17 0.146872)
(0.572916 4.40093e-17 0.110641)
(0.519003 0 0.0974581)
(0.42863 4.38027e-17 0.102021)
(0.252198 0 0.0902271)
(-0.0334247 0 0.0570321)
(-0.321458 0 0.0209002)
(-0.453898 5.85418e-17 0.0046249)
(-0.422675 5.5928e-17 0.0181397)
(-0.314324 7.49571e-20 0.0403464)
(-0.205077 -1.07753e-16 0.0494344)
(-0.147955 9.10503e-20 0.0555862)
(-0.0668587 0 0.0719109)
(0.0701631 0 0.109653)
(0.228729 -3.20728e-17 0.154177)
(0.323004 4.6126e-19 0.179387)
(0.286797 0 0.159374)
(0.14473 0 0.113808)
(0.0105031 7.63054e-17 0.0591477)
(-0.129117 -4.57922e-20 0.0185855)
(-0.242056 -8.48123e-20 -0.0113275)
(-0.391391 0 -0.0372724)
(-0.562357 0 -0.0616302)
(-0.674659 1.28424e-19 -0.0664796)
(-0.658785 2.94254e-17 -0.0575322)
(-0.557053 0 -0.0280627)
(-0.390181 0 0.00430773)
(-0.292371 0 0.0321725)
(-0.226622 0 0.0416196)
(-0.191883 0 0.0498071)
(-0.0810388 0 0.0566321)
(0.00968275 0 0.0883863)
(0.0701748 0 0.101169)
(-0.0439558 -3.51874e-16 0.0897997)
(-0.119381 -1.71694e-16 0.0486583)
(-0.285049 -1.59599e-16 0.0330851)
(-0.313683 1.55028e-16 0.0175833)
(-0.377151 -3.1396e-16 0.0295008)
(-0.38126 -1.62813e-16 0.0198131)
(-0.519697 -1.97354e-16 0.0207691)
(-0.563818 0 0.00153829)
(-0.605677 0 0.0173566)
(-0.556777 0 0.0443362)
(-0.592541 0 0.0924827)
(-0.733297 -4.69778e-16 0.155529)
(-0.567271 0 0.152324)
(-0.419974 0 0.147143)
(-0.2181 2.06004e-16 0.0898429)
(-0.689619 0 0.165535)
(-1.14601 -2.48308e-16 0.246356)
(-2.6151 3.01297e-16 0.502146)
(-0.0968614 0 -0.0800542)
(8.09822 0 -1.69592)
(11.7329 0 -2.1581)
(1.45408 -6.09153e-17 0.0349438)
(-12.9954 0 2.76921)
(-18.7976 1.41368e-16 3.58732)
(-14.7864 -2.35154e-19 2.66443)
(-8.19279 2.92861e-16 1.40002)
(-0.680709 5.98439e-16 0.0399983)
(1.64203 0 -0.287839)
(1.45563 -5.16256e-16 -0.224094)
(-0.717119 -6.34886e-16 0.220768)
(-3.7075 -6.45906e-16 0.777394)
(-5.28347 0 1.02174)
(-4.71455 -5.62515e-16 0.913214)
(-5.63224 0 1.09609)
(2.87215 0 -1.56779)
(1.93606 0 -1.47198)
(1.38352 -1.02711e-17 -0.85438)
(1.02939 0 -0.135215)
(0.695303 1.06196e-17 0.287927)
(0.0549701 -2.10978e-17 0.300553)
(-0.682282 0 0.313607)
(-1.27215 2.04529e-17 0.374648)
(-1.63482 -2.03382e-17 0.381589)
(-1.64058 -1.91853e-17 0.425861)
(-1.19394 -1.83522e-17 0.601692)
(-0.404465 1.63889e-17 0.835217)
(0.476961 -1.47424e-17 0.982794)
(1.26444 2.43452e-17 0.971891)
(1.95092 0 0.833167)
(2.6417 1.56667e-17 0.657785)
(3.37166 0 0.522198)
(3.97162 0 0.418334)
(4.14938 0 0.262392)
(3.75012 1.79107e-18 -0.00426416)
(2.92519 -9.60951e-20 -0.329237)
(1.99399 -1.90705e-19 -0.585829)
(1.1266 1.23905e-17 -0.698804)
(0.204264 0 -0.716597)
(-0.965973 0 -0.745119)
(-2.31241 0 -0.817779)
(-3.4332 4.78905e-17 -0.850781)
(-3.90624 -3.76587e-19 -0.738562)
(-3.65991 0 -0.482509)
(-3.01444 0 -0.20135)
(-2.33797 0 -0.0175033)
(-1.70679 0 0.0549986)
(-0.928291 2.5802e-18 0.103952)
(0.13564 0 0.198197)
(1.29761 -6.17564e-19 0.307068)
(2.16134 0 0.341604)
(2.47546 0 0.25954)
(2.3211 -5.83026e-18 0.124257)
(1.98344 0 0.035399)
(1.62323 0 0.0298421)
(1.15644 1.61122e-17 0.0593401)
(0.463826 -3.74609e-17 0.0478555)
(-0.400142 0 -0.0168451)
(-1.18324 -3.15805e-17 -0.0775818)
(-1.63563 0 -0.0876791)
(-1.74907 1.52386e-17 -0.0487437)
(-1.69193 1.64397e-19 -0.00261027)
(-1.57744 0 0.0126304)
(-1.37931 0 0.0130158)
(-1.00113 2.76834e-17 0.0364682)
(-0.447535 5.61029e-17 0.0853897)
(0.0994744 -1.03695e-16 0.126381)
(0.445031 0 0.129355)
(0.546426 -4.17596e-17 0.0952681)
(0.519717 -4.15432e-17 0.0551233)
(0.467813 -4.21723e-17 0.0444451)
(0.378056 -4.12155e-17 0.0553969)
(0.201557 0 0.055187)
(-0.0824919 0 0.0409373)
(-0.366998 -5.93507e-17 0.025671)
(-0.496702 -1.10378e-16 0.0238512)
(-0.465375 -5.27496e-17 0.0384612)
(-0.360766 1.89379e-20 0.0534566)
(-0.255351 5.07637e-17 0.0518394)
(-0.203684 4.80385e-17 0.0426538)
(-0.12637 0 0.0394795)
(0.00392359 0 0.0554332)
(0.157304 3.02248e-17 0.0773416)
(0.244927 -1.90018e-17 0.0962851)
(0.209538 0 0.0902665)
(0.0669316 -6.53803e-17 0.0714493)
(-0.0609792 -7.18319e-17 0.0494177)
(-0.200206 -6.70362e-17 0.0400215)
(-0.309864 -1.07813e-16 0.0292042)
(-0.463274 0 0.0190228)
(-0.633034 0 0.0043664)
(-0.751582 -1.20858e-19 0.00528486)
(-0.736719 -5.54572e-17 0.0130479)
(-0.64508 -4.63165e-17 0.0341737)
(-0.482363 0 0.0535394)
(-0.396848 0 0.07068)
(-0.332951 0 0.0721997)
(-0.309049 0 0.0781825)
(-0.195743 0 0.0777247)
(-0.119641 0 0.100524)
(-0.0539065 -1.84913e-16 0.102435)
(-0.17961 -1.65954e-20 0.0975542)
(-0.237054 1.61468e-16 0.0608699)
(-0.41331 0 0.0579052)
(-0.431372 1.45692e-16 0.0437346)
(-0.529602 1.47404e-16 0.0667231)
(-0.538924 0 0.0654824)
(-0.712624 -1.85749e-16 0.0889283)
(-0.759271 -4.92478e-16 0.0779284)
(-0.828351 0 0.0955752)
(-0.790928 0 0.111805)
(-0.870783 0 0.158971)
(-1.08854 -4.40115e-16 0.222284)
(-0.895701 0 0.197581)
(-0.701706 0 0.173913)
(-0.440201 1.9276e-16 0.119194)
(-1.0907 -1.99382e-16 0.242955)
(-1.68 0 0.369736)
(-3.44895 0 0.647464)
(0.262342 0 -0.300106)
(11.0394 0 -2.41848)
(14.8124 0 -2.65853)
(0.327327 -6.24498e-20 0.571164)
(-18.4736 0 4.09495)
(-25.4795 -1.32288e-16 4.89496)
(-19.7345 2.84793e-16 3.47177)
(-10.7834 0 1.71819)
(-0.821718 2.62247e-19 -0.0585006)
(1.8546 0 -0.366166)
(1.65792 -1.97167e-19 -0.240962)
(-1.58166 0 0.437306)
(-5.45445 6.039e-16 1.16718)
(-7.50505 0 1.45411)
(-6.88349 -5.25765e-16 1.33277)
(-8.0771 0 1.57323)
(3.04906 0 -0.890772)
(2.2927 0 -0.61197)
(1.90217 0 -0.173786)
(1.4355 0 0.26716)
(0.837784 -1.00241e-17 0.402586)
(0.0820573 2.11376e-19 0.394121)
(-0.64125 0 0.43404)
(-1.22987 -1.93048e-17 0.447748)
(-1.56509 0 0.453726)
(-1.49792 3.57626e-17 0.574422)
(-1.00449 0 0.82744)
(-0.243203 -1.54723e-17 1.09441)
(0.557946 0 1.2411)
(1.26566 -2.29857e-17 1.21529)
(1.91144 9.06033e-18 1.06431)
(2.60444 -1.44365e-17 0.888899)
(3.34638 1.0399e-17 0.753182)
(3.92681 6.47253e-18 0.618135)
(4.04861 0 0.383812)
(3.59677 -1.69126e-18 0.0122877)
(2.7642 -5.6809e-18 -0.407021)
(1.86839 -1.79638e-17 -0.731084)
(1.03869 -1.17e-17 -0.896631)
(0.123947 0 -0.96548)
(-1.0586 0 -1.03391)
(-2.40002 0 -1.11071)
(-3.47939 -2.23927e-17 -1.10169)
(-3.89642 -1.70571e-17 -0.919466)
(-3.61815 0 -0.596568)
(-2.97946 0 -0.268318)
(-2.32714 4.45888e-18 -0.0482987)
(-1.70664 0 0.0655682)
(-0.918168 1.88816e-21 0.162384)
(0.15629 -1.01668e-18 0.294432)
(1.30839 8.2393e-19 0.412319)
(2.1438 0 0.425515)
(2.43206 0 0.305971)
(2.27071 5.50272e-18 0.133122)
(1.94101 0 0.0135769)
(1.58743 0 -0.0178284)
(1.11636 -1.52045e-17 -0.00912882)
(0.414143 3.53483e-17 -0.030389)
(-0.452463 0 -0.089547)
(-1.22752 2.97956e-17 -0.131333)
(-1.66822 0 -0.116807)
(-1.77484 -7.2386e-18 -0.056698)
(-1.71754 4.75039e-18 0.00619699)
(-1.60482 0 0.036361)
(-1.4057 2.18468e-17 0.0474536)
(-1.02546 -2.6107e-17 0.0741772)
(-0.473534 -1.05305e-16 0.116753)
(0.0669797 4.87129e-17 0.14417)
(0.405217 -4.27407e-17 0.133578)
(0.502491 8.56636e-20 0.092574)
(0.476056 0 0.0500502)
(0.425598 3.97491e-17 0.0375756)
(0.335187 3.88433e-17 0.0480168)
(0.156516 -3.58767e-17 0.0483195)
(-0.128708 3.17007e-17 0.0382478)
(-0.412521 5.59168e-17 0.0302307)
(-0.541641 5.19586e-17 0.0339716)
(-0.510711 -4.96592e-17 0.0500318)
(-0.409089 4.83677e-17 0.0636638)
(-0.306486 0 0.0581532)
(-0.258547 0 0.0438183)
(-0.183069 4.01148e-17 0.0316409)
(-0.057345 0 0.0367884)
(0.0933428 0 0.0471786)
(0.175185 9.03305e-18 0.0609661)
(0.139423 0 0.0595432)
(-0.00637829 6.15129e-17 0.05331)
(-0.131421 1.35024e-16 0.045109)
(-0.273775 0 0.0519933)
(-0.381938 5.06617e-17 0.0512333)
(-0.541245 0 0.0512315)
(-0.710083 0 0.044041)
(-0.835814 -8.19414e-21 0.0508624)
(-0.821591 2.61025e-17 0.0596544)
(-0.740109 6.65164e-20 0.0789417)
(-0.580486 0 0.09121)
(-0.507168 0 0.103525)
(-0.444761 0 0.100269)
(-0.43248 -6.34489e-17 0.105841)
(-0.317179 7.35681e-17 0.102647)
(-0.255783 0 0.122956)
(-0.185318 3.47139e-16 0.119234)
(-0.324606 1.5518e-16 0.119697)
(-0.368381 -3.03024e-16 0.0828848)
(-0.560704 -1.40806e-16 0.088461)
(-0.572923 -2.73333e-16 0.0754249)
(-0.709325 0 0.108507)
(-0.724502 0 0.111452)
(-0.936209 1.7417e-16 0.151019)
(-0.985879 4.61706e-16 0.143329)
(-1.08596 -5.11345e-16 0.167202)
(-1.05998 0 0.180054)
(-1.18922 0 0.232906)
(-1.46886 4.1236e-16 0.300139)
(-1.24925 3.10393e-16 0.253194)
(-1.01577 0 0.216764)
(-0.727718 -1.80524e-16 0.16874)
(-1.55199 1.867e-16 0.345641)
(-2.2419 0 0.508862)
(-4.16371 0 0.758)
(0.755909 0 -0.610567)
(13.6311 0 -3.11291)
(16.9118 0 -2.90465)
(-1.68676 5.34071e-17 1.43292)
(-23.9877 0 5.50543)
(-31.5844 0 6.06713)
(-24.1355 0 4.10093)
(-13.0101 -2.57042e-16 1.89563)
(-0.899151 -2.62075e-16 -0.208212)
(1.81789 0 -0.393404)
(1.68048 4.51542e-16 -0.204244)
(-2.73774 0 0.74466)
(-7.27793 5.6431e-16 1.5892)
(-9.73722 0 1.89107)
(-9.17775 4.91346e-16 1.7789)
(-10.5619 0 2.05979)
(2.93575 1.0248e-17 0.479579)
(2.68769 9.92782e-18 0.478638)
(2.22565 -9.53849e-18 0.563525)
(1.62591 -9.22474e-18 0.612596)
(0.86484 0 0.536589)
(0.0808203 9.11806e-18 0.500423)
(-0.626288 0 0.495635)
(-1.18282 -1.72443e-17 0.482317)
(-1.44061 -1.68057e-17 0.544675)
(-1.29222 -3.2722e-17 0.743871)
(-0.780132 1.49998e-17 1.03201)
(-0.0791054 -1.35558e-17 1.2891)
(0.621291 0 1.40451)
(1.24387 0 1.34565)
(1.85664 -8.54191e-18 1.17821)
(2.56069 2.9545e-19 1.00926)
(3.3102 -4.93783e-19 0.881958)
(3.85324 -4.25229e-19 0.725352)
(3.90322 0 0.431185)
(3.39895 0 -0.0140743)
(2.57333 0 -0.491099)
(1.72913 1.65616e-17 -0.851402)
(0.946018 1.04937e-17 -1.04971)
(0.0427838 0 -1.16136)
(-1.14543 0 -1.27086)
(-2.46999 2.34631e-17 -1.36009)
(-3.49646 0 -1.32171)
(-3.85353 0 -1.08319)
(-3.54814 0 -0.705578)
(-2.92439 0 -0.340445)
(-2.30183 -1.16073e-19 -0.0940084)
(-1.69396 0 0.0517248)
(-0.897035 -3.85934e-20 0.189965)
(0.183817 9.58375e-19 0.360402)
(1.32006 7.16131e-20 0.496565)
(2.12252 0 0.503449)
(2.38381 0 0.361256)
(2.2172 0 0.160746)
(1.89749 0 0.0134632)
(1.55116 0 -0.0476787)
(1.07525 0 -0.0692238)
(0.362556 0 -0.114395)
(-0.507137 -3.35402e-17 -0.183795)
(-1.27428 -2.80343e-17 -0.219928)
(-1.70367 0 -0.189152)
(-1.80397 -7.01412e-18 -0.11011)
(-1.74673 0 -0.0286308)
(-1.63554 0 0.020709)
(-1.43441 -4.08421e-17 0.0508593)
(-1.05042 0 0.0937716)
(-0.498242 4.93489e-17 0.145761)
(0.0376748 0 0.175202)
(0.370019 8.02624e-17 0.161445)
(0.463749 9.24181e-20 0.117016)
(0.437559 0 0.0719169)
(0.388055 0 0.0550584)
(0.296239 0 0.0611812)
(0.114409 6.74134e-17 0.0571331)
(-0.173063 -5.95714e-17 0.0445233)
(-0.457117 -5.24048e-17 0.0379773)
(-0.586272 -4.87862e-17 0.0442419)
(-0.555852 9.34426e-17 0.0621974)
(-0.456968 4.55291e-17 0.0774154)
(-0.356877 0 0.0712669)
(-0.312064 0 0.0562425)
(-0.237472 2.65394e-20 0.0407487)
(-0.11525 0 0.0412055)
(0.0339331 0 0.0456152)
(0.110295 8.49979e-18 0.0551248)
(0.0734658 0 0.0526582)
(-0.0771881 0 0.0508184)
(-0.20105 -1.26606e-16 0.0463299)
(-0.348683 5.89658e-17 0.0607252)
(-0.45624 0 0.0644526)
(-0.622874 0 0.0708013)
(-0.79091 0 0.0687365)
(-0.924838 7.69358e-21 0.0814121)
(-0.910859 0 0.092349)
(-0.840185 8.14768e-17 0.113303)
(-0.682784 -4.99017e-17 0.122398)
(-0.622216 0 0.133752)
(-0.561028 0 0.128135)
(-0.561608 5.95395e-17 0.134987)
(-0.44519 6.48517e-20 0.130905)
(-0.399741 8.16769e-17 0.151862)
(-0.325958 -1.62796e-16 0.144522)
(-0.481737 1.45377e-16 0.149223)
(-0.516111 1.42067e-16 0.110235)
(-0.72995 1.32019e-16 0.122893)
(-0.740714 5.73419e-20 0.111386)
(-0.918356 0 0.155082)
(-0.939594 -1.3478e-16 0.160187)
(-1.19191 0 0.21291)
(-1.24495 0 0.205678)
(-1.38072 4.79034e-16 0.23734)
(-1.36662 0 0.251499)
(-1.54957 0 0.31439)
(-1.87649 0 0.385331)
(-1.63347 -2.90625e-16 0.317242)
(-1.37098 0 0.273022)
(-1.08705 -1.68846e-16 0.238022)
(-2.0723 0 0.466961)
(-2.82667 0 0.655545)
(-4.76884 0 0.825473)
(1.30215 0 -0.979423)
(15.7259 0 -3.74135)
(17.9827 2.85613e-17 -2.88093)
(-4.51121 5.04117e-17 2.55491)
(-29.4176 -1.60886e-16 6.97086)
(-37.0146 0 7.09643)
(-27.9744 0 4.56254)
(-14.8927 4.80898e-16 1.94047)
(-0.939188 0 -0.400156)
(1.51343 -3.56761e-16 -0.369969)
(1.54399 0 -0.120669)
(-4.1551 -5.18833e-16 1.12683)
(-9.125 -5.27339e-16 2.03229)
(-11.9306 0 2.32581)
(-11.5541 4.58965e-16 2.2429)
(-13.025 0 2.54329)
(2.80014 -9.65086e-18 1.54814)
(2.70229 -1.83407e-17 1.27409)
(2.22453 8.98476e-18 1.08861)
(1.55161 3.52947e-19 0.84679)
(0.769185 -8.14059e-18 0.653114)
(0.0234207 0 0.565718)
(-0.635747 0 0.516198)
(-1.10997 1.6238e-17 0.527985)
(-1.26257 3.10093e-17 0.665221)
(-1.04623 6.61234e-19 0.91559)
(-0.547492 -1.41231e-17 1.19931)
(0.0633384 1.27634e-17 1.40909)
(0.646758 -1.05377e-17 1.46137)
(1.18862 0 1.35306)
(1.78736 0 1.17086)
(2.51578 6.03025e-18 1.01446)
(3.2656 -1.69723e-17 0.892188)
(3.75044 -1.02127e-17 0.705747)
(3.71486 0 0.356364)
(3.16368 0 -0.13473)
(2.36338 0 -0.62529)
(1.58683 -2.17099e-19 -0.977032)
(0.856213 -1.94365e-17 -1.17354)
(-0.0342322 1.09154e-17 -1.30526)
(-1.22164 2.26156e-17 -1.44188)
(-2.51546 -4.32605e-17 -1.53645)
(-3.47529 1.78146e-17 -1.46877)
(-3.76775 1.35065e-17 -1.18126)
(-3.44116 9.34649e-18 -0.761432)
(-2.84234 0 -0.373999)
(-2.25646 -3.84848e-18 -0.115937)
(-1.66372 2.06506e-18 0.047114)
(-0.860303 -1.05717e-18 0.212896)
(0.221667 -8.40329e-19 0.410534)
(1.33406 -1.62241e-18 0.559115)
(2.09668 0 0.560482)
(2.32823 0 0.402079)
(2.15753 -5.06005e-18 0.183002)
(1.85017 0 0.0168973)
(1.51267 1.05622e-17 -0.0676488)
(1.03279 1.36674e-17 -0.116889)
(0.31073 0 -0.187324)
(-0.560124 6.29183e-17 -0.271272)
(-1.31725 2.63821e-17 -0.306682)
(-1.73423 0 -0.263651)
(-1.82818 6.60002e-18 -0.16784)
(-1.77142 -3.6863e-18 -0.068427)
(-1.66215 0 0.000204847)
(-1.45904 3.78208e-17 0.0509889)
(-1.07135 -2.22874e-17 0.113585)
(-0.519297 -4.53728e-17 0.179505)
(0.0113845 0 0.215378)
(0.337299 -2.45103e-19 0.201197)
(0.427125 6.92786e-17 0.153525)
(0.400992 0 0.105274)
(0.352291 0 0.083255)
(0.258849 -3.40804e-17 0.0839086)
(0.0735779 -3.16336e-17 0.0743286)
(-0.216285 5.57832e-17 0.0570976)
(-0.500602 4.92618e-17 0.0501371)
(-0.629803 4.58562e-17 0.058227)
(-0.599863 -4.39117e-17 0.0783592)
(-0.503735 -8.55724e-17 0.0964304)
(-0.406163 0 0.0908668)
(-0.364388 0 0.0766985)
(-0.290341 -7.0949e-17 0.0600732)
(-0.171336 0 0.0581981)
(-0.0232205 0 0.0584811)
(0.0475787 -7.98313e-18 0.0638722)
(0.00950255 0 0.0575431)
(-0.146884 5.38924e-17 0.0563974)
(-0.270018 2.01907e-19 0.0511891)
(-0.42408 -5.53577e-17 0.0692803)
(-0.531177 0 0.0748523)
(-0.706188 0 0.0858254)
(-0.873189 0 0.0875681)
(-1.0164 -1.65374e-19 0.106065)
(-1.00225 0 0.119442)
(-0.943539 -3.81577e-17 0.143632)
(-0.787788 9.34838e-17 0.151105)
(-0.741222 0 0.163287)
(-0.68116 0 0.156341)
(-0.696448 0 0.165567)
(-0.579875 5.79678e-20 0.161444)
(-0.552552 -7.65699e-17 0.184541)
(-0.477263 -1.52434e-16 0.174188)
(-0.653182 -1.36253e-16 0.183144)
(-0.682391 1.32925e-16 0.14152)
(-0.92342 0 0.161879)
(-0.936726 1.19974e-16 0.152591)
(-1.15874 0 0.208058)
(-1.18602 1.26243e-16 0.214496)
(-1.48186 0 0.280042)
(-1.53848 0 0.272062)
(-1.71518 0 0.313215)
(-1.71346 -4.8769e-16 0.33099)
(-1.95361 -4.05596e-16 0.406297)
(-2.31439 0 0.476969)
(-2.05556 2.7182e-16 0.38739)
(-1.77705 -2.43191e-16 0.339792)
(-1.52377 1.57985e-16 0.325978)
(-2.64904 -1.63382e-16 0.606078)
(-3.43148 0 0.810214)
(-5.28501 0 0.863306)
(1.79964 0 -1.40167)
(17.1878 0 -4.26599)
(18.0098 -2.67074e-17 -2.5721)
(-8.02661 4.76011e-19 3.95023)
(-34.652 3.00843e-16 8.44201)
(-41.6973 0 7.94992)
(-31.2524 0 4.85058)
(-16.4596 -2.24867e-16 1.8553)
(-0.961198 0 -0.627064)
(0.935934 3.33394e-16 -0.29139)
(1.27959 0 0.00618693)
(-5.78497 9.69433e-16 1.57756)
(-10.9368 0 2.48246)
(-14.0209 0 2.74666)
(-13.9497 -4.28746e-16 2.71378)
(-15.3917 0 3.00834)
(2.51414 0 1.93084)
(2.40253 8.45742e-18 1.63353)
(1.93518 0 1.26699)
(1.28483 7.84296e-18 0.914017)
(0.602063 1.49347e-17 0.698918)
(-0.0517097 0 0.600193)
(-0.62195 -7.09618e-18 0.568703)
(-0.982351 0 0.648629)
(-1.03331 -7.53501e-19 0.852979)
(-0.778552 2.64712e-17 1.12651)
(-0.329377 0 1.37701)
(0.163777 0 1.51194)
(0.624038 9.91124e-18 1.48354)
(1.10282 0 1.32818)
(1.71295 0 1.14484)
(2.47518 0 1.00417)
(3.21131 7.71753e-18 0.870325)
(3.617 4.57746e-18 0.630681)
(3.49001 1.0411e-18 0.216905)
(2.90663 0 -0.306087)
(2.15328 0 -0.781529)
(1.45624 -7.04369e-18 -1.09611)
(0.776701 8.98709e-18 -1.27029)
(-0.105164 -1.02663e-17 -1.408)
(-1.28703 -2.12705e-17 -1.55988)
(-2.5358 3.87846e-17 -1.65002)
(-3.41519 -9.31151e-19 -1.54936)
(-3.63969 -1.27028e-17 -1.21822)
(-3.29958 -8.79022e-18 -0.768555)
(-2.73652 0 -0.373052)
(-2.19367 0 -0.115824)
(-1.61724 -1.94205e-18 0.0539571)
(-0.808172 0 0.23656)
(0.270147 7.90236e-19 0.450295)
(1.3508 7.74709e-19 0.602229)
(2.06677 -1.64827e-18 0.594001)
(2.2661 0 0.421887)
(2.09272 4.75784e-18 0.191763)
(1.80014 7.04492e-18 0.0166644)
(1.47294 -2.65887e-20 -0.0818419)
(0.989981 -2.56298e-17 -0.151771)
(0.260112 0 -0.243373)
(-0.609082 -2.94752e-17 -0.340734)
(-1.35312 0 -0.376295)
(-1.75587 0 -0.322827)
(-1.84324 0 -0.212399)
(-1.78759 9.92369e-20 -0.0972033)
(-1.68099 0 -0.011548)
(-1.4765 -1.76271e-17 0.0578138)
(-1.08603 4.15843e-17 0.138819)
(-0.535608 4.26374e-17 0.217976)
(-0.0119437 0 0.259887)
(0.306186 -3.51345e-17 0.245005)
(0.391466 -6.48361e-17 0.193357)
(0.365271 0 0.141637)
(0.317447 0 0.114779)
(0.222414 3.20135e-17 0.110193)
(0.0336921 2.93423e-17 0.0954665)
(-0.258365 -2.61353e-17 0.0734336)
(-0.542607 -4.58809e-17 0.065629)
(-0.671667 0 0.0756511)
(-0.642122 0 0.0981647)
(-0.548908 4.22822e-20 0.119744)
(-0.453963 -3.96524e-17 0.115337)
(-0.415319 0 0.102762)
(-0.341599 3.33059e-17 0.0862125)
(-0.225816 0 0.0833491)
(-0.0785241 0 0.0803643)
(-0.0135911 0 0.081748)
(-0.0528648 0 0.0698188)
(-0.215665 -2.0191e-19 0.0673202)
(-0.338021 2.22314e-19 0.0588807)
(-0.499387 5.16275e-17 0.0785444)
(-0.605817 0 0.0842594)
(-0.790223 2.92759e-17 0.098775)
(-0.95573 0 0.103252)
(-1.10944 1.55072e-19 0.127528)
(-1.09456 2.11153e-17 0.143361)
(-1.04925 -3.53952e-17 0.171895)
(-0.894556 -4.37523e-17 0.178615)
(-0.863699 0 0.192854)
(-0.804638 4.36841e-17 0.185161)
(-0.837031 0 0.197719)
(-0.721172 -6.0752e-17 0.1941)
(-0.714938 -7.16959e-17 0.220509)
(-0.640064 1.428e-16 0.207397)
(-0.840749 0 0.221093)
(-0.869021 -2.48817e-16 0.176771)
(-1.14354 0 0.206002)
(-1.16286 1.12139e-16 0.199503)
(-1.4328 0 0.267957)
(-1.46593 1.18288e-16 0.275075)
(-1.80913 0 0.353954)
(-1.86943 3.79625e-16 0.344481)
(-2.09303 -4.19596e-16 0.39705)
(-2.10382 4.5638e-16 0.418821)
(-2.40409 3.79518e-16 0.507699)
(-2.78625 0 0.574616)
(-2.52243 -5.08473e-16 0.467576)
(-2.24309 4.54736e-16 0.417921)
(-2.0422 0 0.433643)
(-3.28113 1.52801e-16 0.759151)
(-4.05996 0 0.969427)
(-5.75002 0 0.867525)
(2.14564 -1.2424e-16 -1.84073)
(17.9011 0 -4.65185)
(17.01 0 -1.97225)
(-12.1058 -4.45036e-17 5.54092)
(-39.585 -2.81267e-16 9.90114)
(-45.584 -1.01466e-16 8.61594)
(-33.9783 0 4.96641)
(-17.7441 0 1.64669)
(-0.974476 0 -0.883307)
(0.0935687 0 -0.161007)
(0.92651 -3.68796e-16 0.169041)
(-7.56149 -4.52756e-16 2.08488)
(-12.65 0 2.92596)
(-15.9252 0 3.13988)
(-16.2786 0 3.17575)
(-17.5756 0 3.4372)
(2.13323 -6.94343e-18 1.80651)
(1.94953 0 1.50855)
(1.51253 -6.63568e-18 1.14704)
(1.00089 0 0.886452)
(0.470845 -6.83846e-18 0.752744)
(-0.0680017 0 0.699829)
(-0.52711 6.66951e-18 0.733856)
(-0.777118 -1.22292e-17 0.887182)
(-0.759145 -2.45401e-17 1.13377)
(-0.511152 -8.93593e-19 1.40039)
(-0.152379 0 1.59163)
(0.204221 0 1.63649)
(0.552359 0 1.53259)
(0.996826 0 1.35212)
(1.6388 0 1.1857)
(2.42929 0 1.05596)
(3.12748 -6.13969e-18 0.885033)
(3.43625 3.42311e-18 0.565229)
(3.22467 -9.78221e-19 0.0754758)
(2.63533 0 -0.474279)
(1.95345 0 -0.923803)
(1.34283 6.07719e-18 -1.19557)
(0.706363 7.69537e-18 -1.34794)
(-0.174179 8.7392e-18 -1.49153)
(-1.34497 0 -1.65261)
(-2.5329 -1.77354e-17 -1.72904)
(-3.31856 -2.87549e-17 -1.59061)
(-3.47402 1.05107e-17 -1.22048)
(-3.12994 0 -0.752593)
(-2.6133 0 -0.360795)
(-2.11798 0 -0.1119)
(-1.55689 1.51793e-18 0.0606486)
(-0.741726 0 0.255705)
(0.328687 0 0.47865)
(1.37016 6.94533e-19 0.626458)
(2.03357 1.54839e-18 0.603967)
(2.19922 0 0.418913)
(2.02521 4.49055e-18 0.183345)
(1.74972 -1.32142e-17 0.00738795)
(1.43369 -9.30288e-18 -0.0963591)
(0.947925 1.20039e-17 -0.179391)
(0.211667 0 -0.286003)
(-0.652686 0 -0.392498)
(-1.38002 0 -0.426088)
(-1.76634 1.45646e-17 -0.361832)
(-1.84683 0 -0.238069)
(-1.79305 3.16045e-18 -0.109596)
(-1.69013 1.04692e-17 -0.0102787)
(-1.48522 0 0.073721)
(-1.09333 -1.93786e-17 0.169379)
(-0.54657 0 0.258642)
(-0.0321613 0 0.304197)
(0.276578 -3.24332e-17 0.287321)
(0.356701 1.79018e-19 0.231027)
(0.330487 3.01891e-17 0.175921)
(0.28375 0 0.145147)
(0.187242 0 0.136188)
(-0.00488771 -2.75375e-17 0.117282)
(-0.29886 0 0.0910689)
(-0.582557 4.30533e-17 0.082554)
(-0.711258 0 0.094874)
(-0.682028 0 0.119877)
(-0.592026 7.51976e-17 0.145289)
(-0.499864 7.42964e-17 0.142341)
(-0.464567 3.51573e-17 0.131827)