/*--------------------------------*- C++ -*----------------------------------*\
| =========                 |                                                 |
| \\      /  F ield         | OpenFOAM: The Open Source CFD Toolbox           |
|  \\    /   O peration     | Version:  2412                                  |
|   \\  /    A nd           | Website:  www.openfoam.com                      |
|    \\/     M anipulation  |                                                 |
\*---------------------------------------------------------------------------*/
FoamFile
{
    version     2.0;
    format      ascii;
    arch        "LSB;label=32;scalar=64";
    class       volScalarField;
    location    "0.895";
    object      Co;
}
// * * * * * * * * * * * * * * * * * * * * * * * * * * * * * * * * * * * * * //

dimensions      [0 0 0 0 0 0 0];

internalField   nonuniform List<scalar> 
12600
(
0.314698
0.176629
0.100032
0.0629458
0.0449761
0.0350575
0.0286593
0.0240787
0.0206047
0.0178688
0.0156541
0.013824
0.0122868
0.010979
0.00985426
0.00887832
0.00802508
0.0072743
0.00661
0.00601935
0.00549196
0.0050193
0.00459427
0.00421094
0.00386429
0.00355008
0.00326464
0.00300483
0.00276792
0.00255155
0.00235363
0.00217234
0.00200608
0.00185341
0.00171308
0.00158396
0.00146504
0.00135542
0.00125429
0.00116093
0.00107467
0.000994922
0.00092115
0.000852867
0.000789628
0.000731033
0.000676712
0.000626333
0.000579588
0.000536201
0.000495912
0.000458491
0.000423717
0.0003914
0.00036135
0.00033341
0.000307415
0.000283237
0.00026073
0.000239792
0.000220293
0.000202151
0.000185248
0.000169525
0.00015487
0.000141243
0.000128538
0.000116732
0.000105721
9.55021e-05
8.59688e-05
7.71364e-05
6.88954e-05
6.12796e-05
5.41737e-05
4.76305e-05
4.15267e-05
3.59341e-05
3.07199e-05
2.59749e-05
2.1555e-05
1.75697e-05
1.38628e-05
1.05609e-05
7.49747e-06
4.8076e-06
2.33546e-06
1.99753e-06
3.64168e-06
5.1999e-06
6.25066e-06
8.14631e-06
7.70057e-06
1.04177e-05
9.90904e-06
9.35583e-06
1.60266e-05
1.5119e-05
1.50708e-05
1.42045e-05
1.17377e-05
2.45329e-05
2.30972e-05
1.85879e-05
1.84944e-05
1.73912e-05
3.09403e-05
2.90698e-05
1.02318e-05
3.26826e-05
3.68964e-05
2.24717e-05
4.03547e-05
4.49278e-05
7.34436e-06
4.28417e-05
4.01119e-05
1.68694e-05
1.95664e-05
1.83e-05
0.477775
0.376418
0.276335
0.202468
0.153141
0.120552
0.0982378
0.0821401
0.0699722
0.0604386
0.0527625
0.0464503
0.0411723
0.0366994
0.0328667
0.029552
0.0266629
0.0241278
0.0218904
0.0199059
0.0181378
0.0165565
0.0151372
0.0138595
0.012706
0.0116621
0.0107153
0.00985461
0.00907088
0.00835599
0.00770285
0.00710529
0.00655784
0.00605568
0.00559456
0.00517067
0.00478062
0.00442138
0.00409024
0.00378477
0.00350275
0.00324222
0.00300137
0.00277859
0.0025724
0.00238146
0.00220455
0.00204058
0.00188851
0.00174744
0.0016165
0.00149494
0.00138203
0.00127713
0.00117964
0.00108902
0.00100474
0.000926375
0.000853447
0.000785622
0.000722468
0.000663727
0.000609004
0.00055811
0.000510674
0.000466574
0.000425449
0.000387243
0.000351598
0.00031852
0.000287643
0.00025904
0.000232328
0.000207645
0.000184583
0.000163348
0.000143502
0.000125317
0.00010832
9.28479e-05
7.83877e-05
6.53443e-05
5.31565e-05
4.22942e-05
3.21583e-05
2.32367e-05
1.50203e-05
8.04128e-06
8.32857e-06
1.30804e-05
1.67871e-05
2.31855e-05
2.01252e-05
3.27129e-05
2.79699e-05
2.60697e-05
5.19701e-05
4.97011e-05
5.45518e-05
4.49613e-05
3.66284e-05
8.46048e-05
8.16826e-05
7.32892e-05
5.50021e-05
6.08285e-05
0.000113654
0.000104475
4.30202e-05
0.000109735
0.000133677
9.27819e-05
0.000132496
0.000166044
3.63402e-05
0.000160295
0.000133834
5.7622e-05
7.10648e-05
5.34388e-05
0.512272
0.468456
0.397175
0.325377
0.264485
0.216448
0.179583
0.151275
0.129201
0.111647
0.0974131
0.0856727
0.0758458
0.0675185
0.060388
0.0542279
0.0488654
0.0441664
0.0400252
0.0363573
0.033094
0.0301795
0.0275672
0.0252185
0.0231009
0.0211867
0.0194525
0.0178779
0.0164456
0.0151405
0.0139493
0.0128605
0.0118639
0.0109505
0.0101125
0.00934276
0.00863502
0.00798368
0.00738371
0.00683062
0.00632035
0.00584924
0.00541399
0.00501163
0.00463944
0.00429497
0.00397599
0.00368046
0.00340653
0.00315252
0.00291686
0.00269818
0.00249513
0.00230658
0.00213138
0.0019686
0.00181726
0.00167658
0.00154569
0.001424
0.00131071
0.00120536
0.00110723
0.00101598
0.000930944
0.000851896
0.000778177
0.000709698
0.000645795
0.000586498
0.000531126
0.00047983
0.000431895
0.000387595
0.000346166
0.000308008
0.000272298
0.000239563
0.000208905
0.000180982
0.000154814
0.000131192
0.000109033
8.92689e-05
7.07309e-05
5.43731e-05
3.92766e-05
2.55545e-05
1.83577e-05
1.93189e-05
2.64008e-05
3.82149e-05
2.93475e-05
5.92296e-05
4.53742e-05
3.94046e-05
9.62016e-05
9.40817e-05
0.000110967
8.32009e-05
6.33502e-05
0.000166086
0.000166573
0.000159662
9.83496e-05
0.000120741
0.00023635
0.000217395
9.92099e-05
0.0002078
0.000278933
0.000210673
0.000244381
0.000350402
9.25108e-05
0.000334896
0.000261648
0.00011083
0.0001453
9.0525e-05
0.504215
0.490946
0.453034
0.40265
0.350266
0.301592
0.259085
0.223184
0.193292
0.168468
0.147768
0.130381
0.115653
0.103073
0.0922425
0.0828522
0.0746579
0.0674661
0.0611217
0.0554992
0.0504959
0.0460273
0.0420228
0.0384236
0.0351798
0.032249
0.0295951
0.027187
0.0249977
0.023004
0.0211854
0.0195241
0.0180044
0.0166126
0.0153363
0.0141647
0.0130882
0.0120979
0.0111863
0.0103464
0.00957185
0.00885717
0.00819723
0.00758744
0.00702365
0.0065021
0.00601934
0.00557229
0.00515807
0.00477413
0.00441807
0.00408778
0.00378121
0.00349664
0.0032323
0.00298678
0.00275856
0.00254649
0.00234924
0.00216588
0.00199522
0.00183655
0.00168878
0.0015514
0.00142337
0.00130438
0.00119341
0.00109032
0.000994124
0.000904848
0.00082147
0.000744209
0.000671989
0.000605216
0.00054274
0.000485159
0.000431231
0.000381746
0.000335351
0.00029304
0.000253322
0.00021741
0.000183642
0.000153464
0.000125062
9.99189e-05
7.66917e-05
5.52956e-05
3.80448e-05
2.75762e-05
3.4332e-05
5.2155e-05
3.5635e-05
8.86641e-05
6.14576e-05
5.33325e-05
0.000145562
0.0001451
0.000182078
0.000128798
8.81954e-05
0.000262112
0.000272287
0.000275116
0.000152481
0.000190328
0.000389321
0.000362213
0.000181334
0.00031566
0.000461723
0.00037377
0.000362227
0.00058491
0.000179325
0.000549952
0.000420097
0.000168934
0.00023547
0.000131357
0.488027
0.483222
0.465021
0.43513
0.398501
0.359436
0.321029
0.285181
0.252811
0.224166
0.199098
0.177272
0.158289
0.141754
0.127312
0.114652
0.103514
0.0936766
0.0849564
0.0771995
0.0702772
0.0640807
0.0585185
0.0535127
0.0489967
0.0449137
0.0412145
0.0378567
0.0348035
0.0320228
0.0294863
0.0271694
0.0250503
0.0231098
0.0213308
0.0196981
0.0181982
0.016819
0.0155497
0.0143806
0.0133029
0.0123088
0.0113912
0.0105436
0.00976016
0.00903568
0.00836531
0.00774472
0.0071699
0.00663727
0.00614347
0.00568553
0.00526062
0.0048663
0.00450012
0.00416009
0.00384411
0.00355055
0.00327756
0.00302384
0.00278775
0.00256828
0.00236392
0.00217393
0.00199691
0.00183237
0.00167895
0.00153642
0.00140341
0.00127995
0.00116464
0.00105775
0.000957817
0.000865374
0.000778852
0.000699048
0.000624266
0.000555572
0.000491116
0.000432245
0.000376919
0.000326799
0.000279588
0.000237299
0.0001974
0.00016196
0.000129184
9.86859e-05
7.44282e-05
4.6631e-05
4.25642e-05
6.38472e-05
3.89003e-05
0.000119499
7.48545e-05
7.03699e-05
0.000197239
0.000199623
0.000265342
0.00018068
0.000108159
0.000366514
0.000393485
0.000416207
0.000216971
0.000263484
0.000563027
0.000532736
0.000290346
0.000423775
0.000671365
0.000577589
0.000474582
0.000856282
0.00029781
0.000789255
0.0006046
0.000225183
0.000334106
0.000177824
0.473832
0.468153
0.457218
0.439314
0.415559
0.387829
0.358013
0.327749
0.298262
0.270361
0.244507
0.220897
0.199545
0.180355
0.163168
0.147799
0.134059
0.121769
0.110763
0.100892
0.0920231
0.0840408
0.0768434
0.070342
0.0644591
0.0591269
0.0542861
0.0498847
0.0458769
0.0422226
0.0388862
0.0358364
0.0330454
0.0304884
0.0281433
0.0259905
0.0240125
0.0221934
0.0205192
0.0189771
0.0175556
0.0162445
0.0150342
0.0139165
0.0128835
0.0119284
0.0110448
0.0102269
0.00946945
0.00876775
0.00811732
0.00751425
0.00695477
0.00643565
0.00595369
0.00550622
0.00509047
0.00470428
0.00434521
0.00401153
0.00370108
0.00341251
0.00314384
0.00289409
0.00266139
0.00244511
0.00224344
0.00205607
0.00188123
0.0017189
0.00156727
0.00142668
0.00129521
0.00117353
0.00105961
0.000954458
0.000855877
0.000765225
0.000680108
0.000602254
0.000529015
0.000462542
0.000399838
0.000343541
0.000290314
0.00024289
0.000198957
0.000157796
0.00012523
8.68897e-05
6.31516e-05
7.19795e-05
3.83632e-05
0.0001501
8.39585e-05
8.83806e-05
0.000248565
0.000254473
0.000357853
0.000237129
0.000120636
0.000473684
0.000524925
0.000578567
0.000291053
0.000334681
0.000748245
0.000722517
0.000425626
0.000524466
0.000897599
0.000815474
0.000572612
0.00115132
0.000446351
0.00103756
0.000809668
0.00027375
0.000433104
0.000231595
0.462539
0.454211
0.444367
0.431296
0.414724
0.395093
0.373135
0.349694
0.325589
0.301521
0.278042
0.255558
0.234336
0.21453
0.196203
0.179352
0.16393
0.149859
0.137049
0.125398
0.114809
0.105185
0.0964361
0.0884783
0.0812353
0.0746376
0.0686226
0.0631339
0.0581208
0.0535378
0.0493442
0.0455034
0.0419827
0.0387527
0.035787
0.0330617
0.0305554
0.0282489
0.0261247
0.0241672
0.022362
0.0206963
0.0191584
0.0177377
0.0164245
0.0152102
0.0140866
0.0130465
0.0120833
0.011191
0.0103638
0.00959692
0.00888549
0.0082254
0.0076126
0.00704368
0.00651513
0.00602418
0.00556775
0.00514361
0.00474902
0.00438225
0.0040408
0.00372338
0.00342765
0.00315276
0.00289646
0.00265829
0.00243604
0.00222964
0.00203684
0.00185801
0.00169075
0.00153587
0.00139083
0.00125684
0.00113118
0.00101551
0.000906824
0.000807281
0.000713553
0.000628332
0.000547839
0.00047541
0.000406802
0.000345509
0.0002886
0.000235059
0.000192663
0.000142201
0.000109586
9.53262e-05
3.32156e-05
0.000178727
8.69079e-05
0.000106835
0.000297021
0.000306431
0.000456385
0.000295899
0.000123381
0.000578688
0.000661531
0.000756998
0.000372871
0.000398985
0.000936451
0.000925131
0.0005848
0.000612202
0.0011308
0.0010787
0.000650464
0.00145735
0.000620624
0.00128115
0.00102921
0.000309964
0.00052403
0.000294128
0.453207
0.442814
0.432216
0.420362
0.406786
0.391446
0.374522
0.35632
0.337215
0.317589
0.297803
0.278181
0.258994
0.240459
0.222739
0.205948
0.190152
0.175382
0.161639
0.148902
0.13713
0.126277
0.116286
0.107101
0.0986615
0.0909119
0.0837969
0.0772648
0.071267
0.0657585
0.0606978
0.0560465
0.0517699
0.0478357
0.044215
0.0408809
0.0378093
0.0349781
0.032367
0.0299579
0.027734
0.02568
0.023782
0.0220275
0.0204048
0.0189034
0.0175136
0.0162266
0.0150343
0.0139294
0.0129049
0.0119549
0.0110734
0.0102555
0.00949597
0.0087908
0.00813561
0.00752697
0.00696109
0.00643521
0.00594596
0.00549115
0.00506772
0.00467405
0.00430728
0.0039663
0.00364836
0.00335286
0.00307707
0.00282091
0.00258158
0.0023595
0.00215176
0.00195929
0.00177899
0.00161232
0.00145592
0.00131183
0.00117635
0.00105211
0.000935022
0.00082838
0.000727538
0.000636601
0.000550319
0.000473044
0.000401107
0.000333292
0.000279289
0.000214936
0.000173434
0.00014183
3.94075e-05
0.000204281
8.16126e-05
0.000124875
0.000340221
0.000352244
0.000557447
0.000354309
0.000124726
0.000677374
0.000798436
0.000945621
0.000459667
0.000452114
0.00112023
0.00113442
0.000763688
0.000683749
0.00136216
0.00135682
0.000705346
0.00176263
0.000813821
0.00150829
0.00125682
0.00033052
0.000598537
0.00036651
0.445148
0.43343
0.421921
0.410038
0.397419
0.383928
0.369578
0.354466
0.338735
0.322552
0.306087
0.28951
0.272985
0.256663
0.240679
0.225153
0.210182
0.195844
0.182194
0.169271
0.157091
0.145659
0.134965
0.12499
0.115706
0.107083
0.0990857
0.0916768
0.0848196
0.0784772
0.0726138
0.067195
0.0621881
0.0575621
0.0532881
0.0493391
0.0456898
0.0423169
0.0391989
0.0363158
0.0336492
0.0311821
0.0288991
0.0267857
0.0248287
0.0230161
0.0213366
0.01978
0.0183369
0.0169986
0.015757
0.014605
0.0135356
0.0125428
0.0116207
0.0107642
0.00996814
0.00922846
0.00854057
0.00790115
0.00730613
0.00675289
0.00623773
0.00575867
0.00531226
0.00489716
0.00451003
0.00415014
0.0038142
0.00350205
0.00321036
0.00293958
0.00268622
0.00245135
0.00223125
0.00202765
0.00183651
0.00166024
0.0014944
0.00134212
0.0011985
0.00106747
0.000943426
0.000831338
0.000724822
0.000629209
0.000539938
0.000455751
0.000388085
0.000307927
0.000255783
0.000214134
8.92263e-05
0.000252625
6.58527e-05
0.000141366
0.000375886
0.000388612
0.000657363
0.000409363
0.000146025
0.000766441
0.000930976
0.00113812
0.000548079
0.000490536
0.00129362
0.00134458
0.000956354
0.00073801
0.00158376
0.00163826
0.000737174
0.00205674
0.0010172
0.00170961
0.00148606
0.000333617
0.000648887
0.000449265
0.438022
0.425454
0.413245
0.401061
0.38865
0.375873
0.362699
0.349158
0.335318
0.321257
0.307055
0.292788
0.278532
0.264358
0.250336
0.236534
0.223018
0.20985
0.197084
0.184772
0.172952
0.161656
0.150906
0.140714
0.131085
0.122015
0.113494
0.105508
0.0980373
0.0910608
0.084555
0.0784952
0.0728564
0.0676136
0.0627419
0.0582175
0.0540171
0.0501188
0.0465015
0.0431455
0.0400321
0.0371439
0.0344644
0.0319786
0.0296722
0.027532
0.0255457
0.0237022
0.0219907
0.0204016
0.0189258
0.0175551
0.0162816
0.0150983
0.0139984
0.0129762
0.0120255
0.0111417
0.0103193
0.00955447
0.00884247
0.00818018
0.00756325
0.00698933
0.00645435
0.0059567
0.00549245
0.0050607
0.00465755
0.00428281
0.00393251
0.00360717
0.00330264
0.00302018
0.00275536
0.00251021
0.00227995
0.00206739
0.00186728
0.00168331
0.00150964
0.00135096
0.00120057
0.0010644
0.00093481
0.00081824
0.000709055
0.000606174
0.000522491
0.000424457
0.000359649
0.000305848
0.000157692
0.000306683
4.48095e-05
0.000160721
0.000401759
0.000412144
0.000752362
0.000457873
0.000184348
0.000843403
0.00105463
0.00132803
0.000634461
0.000511576
0.00145228
0.00155014
0.00115536
0.000775563
0.00178863
0.00191118
0.000747819
0.00233091
0.00122094
0.00187802
0.00171055
0.000318937
0.000668468
0.000586068
0.43165
0.41851
0.405801
0.393317
0.380886
0.368384
0.355756
0.343003
0.330158
0.317271
0.304394
0.291572
0.278843
0.266241
0.253794
0.241527
0.229465
0.217634
0.206061
0.194775
0.183803
0.173175
0.162914
0.153043
0.143581
0.13454
0.12593
0.117754
0.110011
0.102696
0.095801
0.089315
0.0832243
0.0775136
0.0721664
0.0671654
0.0624929
0.058131
0.0540621
0.0502688
0.0467342
0.0434421
0.0403769
0.0375238
0.0348685
0.0323979
0.0300993
0.0279609
0.0259717
0.0241212
0.0223997
0.0207982
0.0193082
0.0179219
0.0166318
0.0154315
0.014314
0.0132741
0.0123058
0.0114045
0.0105648
0.00978319
0.00905466
0.00837652
0.00774404
0.00715535
0.0066059
0.00609464
0.00561701
0.0051728
0.00475736
0.00437131
0.00400976
0.0036742
0.00335941
0.0030678
0.0027937
0.00254045
0.00230184
0.00208222
0.00187469
0.00168479
0.0015046
0.00134114
0.00118534
0.00104493
0.000912964
0.000788826
0.000686462
0.000568302
0.000488491
0.000420121
0.000247743
0.000412319
8.70393e-05
0.000208222
0.000415421
0.000419264
0.000838658
0.000496561
0.000224772
0.000906424
0.00116494
0.00150901
0.000715174
0.000513502
0.00159336
0.00174577
0.00135224
0.000797942
0.00198767
0.0021801
0.000740059
0.00257825
0.00141522
0.0020084
0.00192412
0.000287411
0.000652196
0.000749285
0.425901
0.412363
0.399299
0.38657
0.374058
0.36166
0.349313
0.336995
0.324712
0.312494
0.300377
0.288397
0.276585
0.264966
0.253556
0.242367
0.231404
0.220672
0.210172
0.199911
0.189893
0.180129
0.170629
0.161405
0.15247
0.143838
0.13552
0.127527
0.119867
0.112545
0.105565
0.098926
0.0926266
0.0866618
0.0810247
0.0757067
0.0706978
0.0659867
0.0615615
0.0574095
0.0535179
0.0498735
0.0464632
0.0432743
0.040294
0.0375102
0.0349109
0.032485
0.0302214
0.0281099
0.0261407
0.0243045
0.0225924
0.0209965
0.0195085
0.0181218
0.0168289
0.015624
0.0145004
0.0134535
0.012477
0.0115671
0.0107182
0.00992728
0.00918896
0.0085012
0.00785877
0.00726054
0.00670127
0.00618076
0.00569362
0.00524061
0.00481607
0.00442174
0.00405156
0.00370834
0.00338548
0.00308687
0.00280528
0.00254579
0.00230033
0.00207538
0.00186168
0.00166745
0.00148204
0.00131462
0.00115673
0.00100852
0.000884501
0.000743763
0.000646278
0.000560646
0.000362998
0.00053707
0.000137254
0.000290256
0.000442925
0.000412021
0.000918223
0.000522169
0.000264799
0.000954046
0.00125736
0.00167509
0.000786774
0.000495492
0.00171516
0.00192606
0.00153812
0.000806821
0.00216248
0.00242255
0.00071651
0.00279384
0.00159118
0.00209703
0.00212084
0.000240801
0.000596638
0.000927813
0.420684
0.406863
0.393542
0.380623
0.36802
0.355655
0.343464
0.331412
0.319487
0.307696
0.296059
0.284603
0.273352
0.262329
0.251552
0.241033
0.230778
0.220787
0.211054
0.201575
0.192342
0.183351
0.174595
0.166074
0.157787
0.149737
0.141927
0.134363
0.12705
0.119995
0.113202
0.106678
0.100424
0.0944431
0.0887355
0.0832999
0.0781337
0.0732324
0.0685906
0.0642016
0.0600576
0.0561504
0.0524709
0.0490097
0.045757
0.0427031
0.0398381
0.0371524
0.0346361
0.03228
0.0300749
0.0280122
0.0260831
0.0242799
0.0225944
0.0210198
0.0195485
0.0181747
0.0168911
0.015693
0.0145737
0.0135291
0.0125531
0.0116426
0.0107916
0.00999794
0.00925577
0.00856393
0.00791648
0.00731331
0.00674828
0.00622234
0.005729
0.00527034
0.00483937
0.0044394
0.00406277
0.00371408
0.00338489
0.00308117
0.00279351
0.0025295
0.00227834
0.00204965
0.00183098
0.00163317
0.00144596
0.00127061
0.00112168
0.000955692
0.000837534
0.000731675
0.000507599
0.000685148
0.000198578
0.000407634
0.000502468
0.000433948
0.00101695
0.000531574
0.000301628
0.000984805
0.00132719
0.00182077
0.000846057
0.000457446
0.00181643
0.00208534
0.00170444
0.00080323
0.00230712
0.00262864
0.000678738
0.00297454
0.00174167
0.002141
0.00229519
0.000181148
0.000498785
0.00111425
0.415923
0.401898
0.38839
0.375327
0.362644
0.350278
0.338174
0.326294
0.314613
0.303124
0.291828
0.280739
0.269875
0.25925
0.248883
0.238787
0.228971
0.21944
0.210191
0.201221
0.192521
0.184082
0.175893
0.167943
0.160224
0.152727
0.145447
0.138379
0.131521
0.124872
0.118434
0.112207
0.106194
0.100397
0.0948188
0.0894604
0.0843231
0.079407
0.0747113
0.0702343
0.0659731
0.061924
0.0580826
0.0544436
0.0510009
0.0477482
0.0446785
0.0417848
0.0390595
0.0364952
0.0340842
0.0318193
0.0296926
0.0276974
0.025826
0.024072
0.0224283
0.020889
0.0194473
0.0180982
0.016835
0.0156536
0.0145477
0.013514
0.0125462
0.0116422
0.0107954
0.010005
0.00926423
0.00857323
0.00792507
0.00732103
0.00675371
0.00622568
0.00572891
0.00526735
0.00483218
0.0044288
0.00404749
0.00369521
0.00336108
0.00305394
0.0027613
0.00249433
0.00223861
0.00200684
0.0017867
0.00158096
0.00140359
0.00120948
0.00106736
0.00093803
0.000686227
0.000860678
0.000301358
0.000547952
0.00062109
0.00049864
0.00111169
0.000536459
0.000346111
0.000996754
0.00136946
0.00194094
0.000889973
0.000399555
0.00189576
0.0022177
0.0018435
0.000787002
0.00241692
0.00279066
0.000626737
0.00311861
0.00186173
0.00213773
0.00246453
0.000132069
0.000430788
0.00136927
0.411556
0.397383
0.38374
0.370569
0.35782
0.345442
0.333388
0.32162
0.31011
0.29884
0.287802
0.276995
0.266427
0.256105
0.246042
0.236247
0.226731
0.217501
0.208561
0.199908
0.191541
0.183451
0.17563
0.168067
0.160751
0.153669
0.146811
0.140167
0.133726
0.127482
0.121429
0.115562
0.109878
0.104374
0.0990514
0.0939083
0.0889453
0.084163
0.0795616
0.0751414
0.0709021
0.066843
0.0629627
0.0592594
0.0557303
0.0523725
0.0491821
0.046155
0.0432863
0.0405713
0.0380042
0.0355799
0.0332922
0.0311358
0.0291043
0.0271924
0.0253936
0.023703
0.022114
0.0206224
0.0192216
0.0179078
0.0166746
0.0155192
0.0144348
0.0134196
0.0124668
0.0115756
0.0107389
0.00995698
0.00922228
0.0085365
0.00789136
0.00729002
0.00672339
0.00619616
0.00569832
0.00523619
0.00479863
0.00439379
0.00400914
0.00365499
0.00331694
0.00300794
0.00271136
0.00244203
0.00218527
0.00194575
0.00173628
0.00151097
0.00134139
0.00118509
0.000904113
0.00106836
0.000459876
0.000715588
0.000766226
0.000574209
0.00121321
0.000574204
0.000424134
0.000986879
0.00138836
0.00203975
0.000915468
0.00032166
0.00195078
0.00231711
0.00194886
0.000756497
0.00248797
0.00290259
0.000558828
0.00322515
0.00194866
0.00208486
0.00263259
0.000162091
0.000393542
0.00163481
0.407533
0.393253
0.379512
0.366263
0.353463
0.34107
0.329045
0.317352
0.305963
0.294855
0.284014
0.273429
0.263098
0.253023
0.243208
0.233657
0.224379
0.215378
0.20666
0.198227
0.190078
0.182211
0.174619
0.167297
0.160234
0.15342
0.146845
0.140496
0.134362
0.128433
0.122699
0.117149
0.111777
0.106575
0.101538
0.0966623
0.0919432
0.087379
0.0829678
0.0787085
0.0746004
0.0706428
0.0668352
0.0631769
0.0596671
0.0563047
0.053088
0.0500153
0.0470841
0.0442919
0.0416353
0.0391113
0.0367156
0.0344449
0.0322943
0.0302601
0.0283371
0.0265216
0.0248078
0.0231925
0.0216697
0.0202364
0.0188863
0.0176173
0.0164227
0.0153012
0.0142456
0.0132559
0.0123242
0.0114517
0.0106299
0.00986132
0.00913674
0.00846009
0.0078212
0.00722571
0.00666228
0.0061384
0.00564137
0.00518073
0.00474216
0.00433763
0.00395064
0.00359618
0.00325519
0.00294485
0.0026479
0.00237122
0.00212601
0.00186631
0.00166569
0.00147868
0.00116699
0.00131359
0.000661922
0.000915439
0.000941512
0.00066318
0.00139339
0.000680238
0.000540804
0.000986842
0.00140597
0.00213893
0.000919409
0.000222324
0.00197771
0.00237762
0.00201539
0.000708561
0.00251683
0.00295961
0.000471869
0.00329358
0.00200193
0.00198044
0.00277787
0.000217274
0.000350754
0.00190164
0.403811
0.389455
0.375644
0.362339
0.349502
0.337097
0.32509
0.31345
0.302148
0.29116
0.280469
0.270059
0.259921
0.25005
0.240444
0.231103
0.222028
0.213223
0.204692
0.196435
0.188454
0.180749
0.173316
0.166151
0.159249
0.152601
0.1462
0.140036
0.134098
0.128376
0.12286
0.117539
0.112402
0.107442
0.102648
0.0980132
0.0935309
0.089195
0.0850005
0.0809434
0.0770204
0.0732288
0.0695666
0.0660323
0.0626245
0.0593421
0.056184
0.0531493
0.0502367
0.047445
0.0447723
0.0422173
0.0397775
0.037451
0.0352347
0.0331266
0.0311227
0.0292208
0.0274165
0.0257076
0.024089
0.0225589
0.0211115
0.0197457
0.0184549
0.0172389
0.0160903
0.0150099
0.0139897
0.0130315
0.0121264
0.0112776
0.0104753
0.00972435
0.00901343
0.0083494
0.00771953
0.0071327
0.00657455
0.00605624
0.00556152
0.00510426
0.00466569
0.00426308
0.00387471
0.00352042
0.0031801
0.00286314
0.0025788
0.00228157
0.00204648
0.00182493
0.00148093
0.00160228
0.000910204
0.00115316
0.00115142
0.000769146
0.00159044
0.000796528
0.000711788
0.00104947
0.00143467
0.00221807
0.000906471
0.000104638
0.00197091
0.0023957
0.00204134
0.000638625
0.00249995
0.00295794
0.000361647
0.00332342
0.00202321
0.00182301
0.00289878
0.00029855
0.000352237
0.00216495
0.400354
0.385945
0.372086
0.358742
0.345881
0.333469
0.321476
0.309874
0.298636
0.28774
0.277164
0.266891
0.256908
0.247206
0.237776
0.228615
0.21972
0.21109
0.202725
0.194626
0.186793
0.179225
0.171922
0.164879
0.158094
0.151561
0.145274
0.139226
0.133409
0.127814
0.122432
0.117254
0.11227
0.107471
0.102847
0.0983898
0.0940901
0.0899402
0.0859329
0.0820616
0.0783205
0.0747044
0.071209
0.0678306
0.064566
0.0614127
0.0583685
0.0554317
0.0526006
0.0498741
0.0472505
0.0447291
0.042308
0.0399865
0.0377623
0.0356346
0.0336007
0.0316597
0.029808
0.0280451
0.0263665
0.0247718
0.0232559
0.0218189
0.0204545
0.0191637
0.0179394
0.0167833
0.0156873
0.0146544
0.0136751
0.0127539
0.0118801
0.0110599
0.010281
0.00955146
0.00885731
0.00820903
0.00759051
0.00701484
0.00646363
0.005953
0.00546169
0.00500952
0.00457197
0.0041717
0.00378573
0.00342596
0.00309979
0.00276215
0.00248964
0.00222981
0.00185201
0.00194078
0.00121051
0.00143514
0.00140082
0.000896464
0.00181036
0.000928935
0.000906388
0.00119136
0.00152026
0.00227782
0.000946112
8.68793e-05
0.00194025
0.00241729
0.00207269
0.000540673
0.00247697
0.00293619
0.000223092
0.00331433
0.00201744
0.00163403
0.00301473
0.000405842
0.000516664
0.00242059
0.397132
0.382688
0.368797
0.355429
0.342552
0.330138
0.318158
0.306586
0.295399
0.284573
0.274087
0.263923
0.254065
0.2445
0.235219
0.226212
0.217473
0.208998
0.200785
0.192831
0.185135
0.177695
0.17051
0.163577
0.156893
0.150454
0.144256
0.138293
0.132559
0.127047
0.12175
0.116659
0.111768
0.107067
0.102548
0.0982027
0.0940224
0.089999
0.0861245
0.0823914
0.0787924
0.0753211
0.0719711
0.0687371
0.0656138
0.0625972
0.0596831
0.0568685
0.0541501
0.0515259
0.0489933
0.046551
0.0441968
0.0419299
0.0397481
0.0376512
0.0356365
0.0337041
0.031851
0.0300776
0.0283801
0.0267592
0.0252103
0.0237347
0.0223267
0.0209884
0.0197128
0.0185031
0.017351
0.0162608
0.0152227
0.0142426
0.0133091
0.0124299
0.0115915
0.010804
0.0100517
0.00934721
0.00867246
0.00804278
0.00743755
0.0068754
0.00633246
0.00583135
0.00534467
0.00489795
0.00446554
0.00406152
0.00369206
0.00331181
0.00299984
0.00269853
0.00228564
0.00233541
0.00156837
0.00176828
0.00169471
0.00105017
0.00205895
0.00108333
0.00113152
0.00136173
0.00161741
0.00243558
0.00108918
0.000221224
0.00193994
0.00240352
0.00208012
0.000404475
0.00242532
0.00288035
8.61928e-05
0.00329994
0.00207691
0.00159229
0.0032084
0.000537988
0.000803286
0.00266536
0.394118
0.379653
0.365744
0.352361
0.339478
0.327066
0.3151
0.303555
0.292409
0.281638
0.271224
0.261147
0.25139
0.241938
0.232779
0.223903
0.215299
0.206962
0.198884
0.191063
0.183494
0.176174
0.169102
0.162273
0.155685
0.149335
0.143217
0.137329
0.131664
0.126217
0.120982
0.115952
0.111121
0.106482
0.102027
0.0977485
0.0936399
0.0896932
0.085901
0.0822559
0.0787508
0.0753787
0.0721329
0.0690071
0.0659952
0.0630919
0.0602917
0.0575902
0.0549828
0.0524663
0.0500365
0.0476913
0.0454272
0.0432429
0.0411352
0.0391036
0.037145
0.0352596
0.0334441
0.0316995
0.0300218
0.0284127
0.0268675
0.0253886
0.0239704
0.0226161
0.0213187
0.0200828
0.0188999
0.0177757
0.0167
0.0156803
0.0147044
0.0137819
0.012898
0.012065
0.0112656
0.0105145
0.00979182
0.0091154
0.00846229
0.00785385
0.00726355
0.00671695
0.00618387
0.00569253
0.0052152
0.00476723
0.004355
0.00393121
0.00357921
0.00323443
0.00278554
0.00279178
0.00198833
0.00215944
0.00203789
0.00123591
0.00234254
0.0012664
0.00139494
0.00156054
0.00172921
0.00260539
0.00125712
0.000420449
0.00205249
0.0024884
0.00217173
0.000468818
0.00247151
0.00288311
0.000166938
0.00335177
0.00213107
0.00154562
0.00339541
0.000693383
0.00110869
0.00289697
0.39129
0.376815
0.362897
0.349509
0.336626
0.324221
0.31227
0.30075
0.289638
0.278915
0.268559
0.258552
0.248877
0.239519
0.230462
0.221696
0.213208
0.204989
0.197032
0.189331
0.181879
0.174672
0.167706
0.160977
0.154483
0.148218
0.142179
0.136363
0.130763
0.125376
0.120196
0.115217
0.110434
0.10584
0.101429
0.0971955
0.0931318
0.0892317
0.0854885
0.0818956
0.0784465
0.0751346
0.0719534
0.068897
0.0659589
0.0631337
0.0604154
0.057799
0.0552792
0.0528518
0.0505118
0.0482561
0.04608
0.0439813
0.0419559
0.0400025
0.038117
0.0362993
0.0345452
0.0328556
0.031226
0.0296582
0.0281472
0.0266958
0.0252981
0.0239582
0.0226688
0.0214355
0.0202492
0.0191173
0.0180287
0.0169929
0.0159963
0.0150507
0.0141401
0.0132787
0.0124477
0.0116644
0.0109067
0.0101953
0.00950468
0.00885919
0.00822973
0.00764464
0.00707145
0.00654037
0.00602286
0.00553373
0.00508208
0.0046159
0.00422539
0.00383739
0.00335208
0.00331356
0.00247279
0.00261439
0.00243437
0.00145987
0.00266807
0.00148573
0.00170539
0.00178822
0.00185976
0.00278447
0.00144897
0.000654256
0.0021852
0.00259139
0.00228285
0.00057229
0.00252562
0.00290832
0.000375141
0.00340189
0.00218531
0.00149537
0.00357465
0.000870657
0.00142821
0.00311374
0.388628
0.374151
0.360233
0.346847
0.33397
0.321576
0.309642
0.298145
0.287065
0.276382
0.266075
0.256127
0.24652
0.237239
0.228267
0.219593
0.211204
0.203089
0.195237
0.187642
0.180296
0.173193
0.166327
0.159694
0.153289
0.147108
0.141147
0.135401
0.129867
0.124539
0.119412
0.114482
0.109744
0.105191
0.100818
0.0966194
0.0925894
0.088722
0.0850113
0.0814514
0.0780361
0.0747599
0.0716167
0.0686009
0.0657066
0.0629287
0.0602612
0.0576995
0.0552377
0.0528719
0.0505964
0.0484078
0.0463008
0.0442727
0.0423184
0.0404362
0.038621
0.0368723
0.0351847
0.033559
0.0319895
0.0304782
0.0290189
0.0276149
0.0262592
0.0249566
0.0236988
0.0224924
0.0213273
0.0202123
0.0191351
0.0181067
0.0171125
0.016166
0.0152497
0.0143802
0.0135368
0.0127392
0.0119634
0.0112325
0.010519
0.00984969
0.00919346
0.00858078
0.00797791
0.00741554
0.00686656
0.00634228
0.00585812
0.0053538
0.00492886
0.00450167
0.00397994
0.00390051
0.00302029
0.00313599
0.00288651
0.00177168
0.00304269
0.00174939
0.00207178
0.00204506
0.00201348
0.00297922
0.00167121
0.000930056
0.00232216
0.00270439
0.00240534
0.000690342
0.00258848
0.00293102
0.000631008
0.0034552
0.00224523
0.00144782
0.00374606
0.00106866
0.00175671
0.00331397
0.386116
0.371644
0.357731
0.344353
0.331486
0.319106
0.307191
0.295718
0.284667
0.27402
0.263756
0.253858
0.244309
0.235092
0.226193
0.217597
0.209291
0.201264
0.193505
0.186004
0.178753
0.171743
0.16497
0.158426
0.152106
0.146006
0.140121
0.134446
0.128976
0.123707
0.118635
0.113754
0.10906
0.104548
0.100211
0.0960463
0.0920469
0.0882078
0.0845235
0.0809887
0.0775977
0.0743455
0.0712263
0.0682354
0.065367
0.0626165
0.0599784
0.0574484
0.0550209
0.0526921
0.0504565
0.0483108
0.0462495
0.0442699
0.0423664
0.0405373
0.0387768
0.0370842
0.0354533
0.0338848
0.0323719
0.0309167
0.0295118
0.0281607
0.0268553
0.0256006
0.0243872
0.0232224
0.0220949
0.0210142
0.0199669
0.0189653
0.0179931
0.0170657
0.0161639
0.0153061
0.0144699
0.013677
0.0129016
0.0121691
0.01145
0.0107731
0.010106
0.00947994
0.00886175
0.00828008
0.00771246
0.00716271
0.00665678
0.00612281
0.00567004
0.00521329
0.00465532
0.00454581
0.00362333
0.00372146
0.00339353
0.00223736
0.00347306
0.00206514
0.00250168
0.00233138
0.00219528
0.00319826
0.00193032
0.00125408
0.00246106
0.0028318
0.00254983
0.00081753
0.00266496
0.00296319
0.000914674
0.00351793
0.00231412
0.0014098
0.00390938
0.00128616
0.00208823
0.00349547
0.383737
0.369276
0.355374
0.342008
0.329156
0.316793
0.304897
0.293448
0.282426
0.271811
0.261586
0.251732
0.242233
0.233071
0.224233
0.215704
0.20747
0.199519
0.19184
0.184421
0.177254
0.170329
0.16364
0.157178
0.150939
0.144916
0.139103
0.133496
0.12809
0.122881
0.117863
0.113032
0.108384
0.103912
0.0996136
0.0954823
0.0915134
0.087702
0.0840429
0.0805311
0.0771614
0.073929
0.0708287
0.0678558
0.0650051
0.0622724