/*--------------------------------*- C++ -*----------------------------------*\
| =========                 |                                                 |
| \\      /  F ield         | OpenFOAM: The Open Source CFD Toolbox           |
|  \\    /   O peration     | Version:  2412                                  |
|   \\  /    A nd           | Website:  www.openfoam.com                      |
|    \\/     M anipulation  |                                                 |
\*---------------------------------------------------------------------------*/
FoamFile
{
    version     2.0;
    format      ascii;
    arch        "LSB;label=32;scalar=64";
    class       volVectorField;
    location    "0.485";
    object      ddtCorrDdt0(U);
}
// * * * * * * * * * * * * * * * * * * * * * * * * * * * * * * * * * * * * * //

dimensions      [0 1 -2 0 0 0 0];

internalField   nonuniform List<vector> 
12600
(
(-6.50489 0 1.86636)
(-1.11415 5.25333e-18 1.2588)
(0.237084 2.08041e-18 0.608966)
(0.162921 0 0.266701)
(0.0231442 3.48577e-20 0.137349)
(0.0651553 0 0.120528)
(0.162078 -5.43039e-19 0.146527)
(0.0833216 0 0.121336)
(-0.183189 0 0.0287433)
(-0.521434 0 -0.106264)
(-0.666087 0 -0.112909)
(-0.664389 4.38419e-19 -0.106685)
(-0.590502 4.07275e-19 -0.0473798)
(-0.500104 0 0.0296801)
(-0.487934 -9.54023e-19 0.0757295)
(-0.526524 0 0.0979475)
(-0.570589 -1.18251e-20 0.105046)
(-0.616196 0 0.0934987)
(-0.631433 -6.93802e-19 0.0827825)
(-0.611082 0 0.0743401)
(-0.553653 0 0.0716418)
(-0.490641 0 0.0546739)
(-0.483336 -2.6446e-18 0.0101419)
(-0.435131 2.45731e-18 0.0281776)
(-0.317925 3.64599e-20 0.0494305)
(-0.243567 -1.2369e-18 0.030629)
(-0.18837 0 0.0109564)
(-0.190949 0 -0.0154354)
(-0.264956 0 -0.0837805)
(-0.200946 1.61879e-18 -0.0668257)
(-0.0498589 2.12736e-18 -0.023034)
(0.0871907 0 -0.0107407)
(0.181862 0 -0.0261475)
(0.255998 4.00496e-19 -0.0438239)
(0.317806 2.92455e-19 -0.0614698)
(0.367538 0 -0.0764046)
(0.407197 0 -0.0834314)
(0.431927 4.20941e-19 -0.0870082)
(0.442246 0 -0.0881478)
(0.440291 -6.181e-21 -0.0852365)
(0.436228 5.0537e-19 -0.0778534)
(0.434102 4.76091e-19 -0.0695754)
(0.436461 0 -0.0623875)
(0.402333 2.11261e-19 -0.111277)
(0.39265 -1.45645e-20 -0.111898)
(0.39 5.19203e-19 -0.118195)
(0.379661 -1.00239e-18 -0.130603)
(0.344049 0 -0.148596)
(0.261234 1.87789e-18 -0.167143)
(0.115847 -2.35996e-18 -0.17546)
(-0.0638352 0 -0.134791)
(-0.322067 -1.03019e-19 -0.1194)
(-0.560423 3.72345e-18 -0.0468522)
(-0.6646 0 0.0395169)
(-0.59401 -3.69771e-18 0.134798)
(-0.410735 0 0.24167)
(-0.0906307 0 0.439417)
(0.0814242 -9.66973e-20 0.382889)
(0.111561 -8.36652e-20 0.328785)
(-0.0807386 -4.16838e-18 0.180615)
(-0.104346 2.76008e-18 0.307207)
(-0.0790641 -2.09064e-17 0.191525)
(0.0013965 0 -0.0349614)
(0.406857 -2.81349e-17 0.273511)
(0.0123456 -1.78646e-17 -0.250477)
(-0.507957 6.79789e-17 0.0704426)
(-1.46895 7.13707e-18 -0.0804695)
(-0.840079 0 0.41235)
(1.72247 0 1.14306)
(2.96106 0 1.96583)
(-0.846548 0 -0.114074)
(-2.42362 0 -0.763346)
(1.8371 -9.27685e-17 -0.676348)
(4.27855 -9.062e-16 -0.330929)
(2.49873 0 1.33045)
(-2.51591 0 -3.87354)
(-3.66492 -1.18521e-16 2.45448)
(-8.35945 -4.37623e-18 -2.8258)
(-3.39173 1.02419e-14 -5.32702)
(-52.5564 0 42.5015)
(43.9933 0 -15.6762)
(38.3853 0 -26.9357)
(-20.7585 2.1727e-17 0.453943)
(-0.427386 0 -2.2158)
(-2.68402 0 2.44664)
(0.731197 1.24343e-15 5.35478)
(4.39013 -3.11997e-17 5.08145)
(0.0851953 0 -0.724845)
(8.71705 0 -12.8419)
(30.7725 -2.43704e-15 -20.9479)
(35.6374 -2.5236e-15 -18.5264)
(25.7328 2.62834e-16 -11.6541)
(9.01986 3.05651e-16 -0.693255)
(-13.3638 1.89554e-19 8.45476)
(-26.6633 -1.23242e-17 14.2779)
(-26.4717 -7.84773e-16 14.8077)
(-18.9377 0 11.5093)
(-10.909 0 7.18731)
(-7.74918 0 4.36116)
(-4.13765 -9.44755e-16 1.46217)
(-0.861008 -2.2001e-16 -0.457553)
(-1.34704 3.97584e-16 0.684869)
(-2.30111 -4.03738e-16 1.87045)
(-2.56596 0 2.16222)
(2.06191 0 -1.32455)
(9.26972 0 -5.45457)
(10.2024 1.42513e-15 -5.6984)
(2.1725 0 -0.94137)
(-4.5043 7.53452e-16 2.75753)
(-4.35893 0 2.1706)
(-2.7458 0 1.08658)
(-1.55244 -5.40941e-16 0.570744)
(-0.649847 0 0.296956)
(0.401909 0 0.0465266)
(1.07138 0 -0.0306734)
(1.48485 2.76432e-17 -0.552781)
(1.36208 0 -0.741461)
(1.15627 -3.84071e-17 -0.779247)
(0.545149 0 -0.344387)
(-0.677113 -1.52533e-19 0.401537)
(-5.43933 1.59448e-19 3.65257)
(-2.38839 -3.29359e-18 2.9845)
(-1.43956 -5.30367e-19 1.61175)
(-0.936295 0 0.795909)
(-0.515803 -8.24541e-19 0.335625)
(-0.160005 6.58082e-19 0.171945)
(0.0235971 5.66444e-19 0.14017)
(-0.121254 -1.92262e-19 0.0654356)
(-0.481327 0 -0.0746726)
(-0.799403 0 -0.226156)
(-0.880823 0 -0.223996)
(-0.844412 0 -0.194704)
(-0.726017 0 -0.0951055)
(-0.634383 0 0.0171746)
(-0.655317 8.56641e-20 0.0834372)
(-0.715325 0 0.129653)
(-0.780585 -6.37727e-19 0.141086)
(-0.841282 0 0.131465)
(-0.859304 1.3836e-18 0.123209)
(-0.83537 -1.3181e-18 0.116917)
(-0.778319 0 0.118575)
(-0.740389 -1.24714e-18 0.0794623)
(-0.753128 1.34527e-18 -0.0183577)
(-0.691959 -1.24444e-18 0.00115734)
(-0.594079 1.10873e-18 0.0309205)
(-0.570993 0 -0.0293239)
(-0.527164 -9.54758e-19 -0.0385612)
(-0.565432 0 -0.0968297)
(-0.617718 0 -0.170158)
(-0.463324 0 -0.113543)
(-0.222903 -1.0561e-18 -0.0304426)
(-0.00978973 0 -0.0229696)
(0.164311 0 -0.0693464)
(0.319201 0 -0.116621)
(0.453909 0 -0.160457)
(0.563084 0 -0.19409)
(0.639886 0 -0.205791)
(0.674982 -4.33191e-19 -0.201869)
(0.673136 0 -0.185741)
(0.637079 -1.08323e-18 -0.154983)
(0.585214 -1.0428e-18 -0.113167)
(0.531845 -4.79895e-19 -0.0702919)
(0.4766 0 -0.0324542)
(0.399689 0 -0.0652332)
(0.374947 2.23318e-20 -0.0581462)
(0.375913 -5.2985e-19 -0.0736954)
(0.397743 9.26754e-19 -0.11574)
(0.423011 0 -0.184415)
(0.423235 -1.72788e-18 -0.270217)
(0.377889 0 -0.354033)
(0.299668 0 -0.377106)
(0.125444 -3.31989e-18 -0.411527)
(-0.00887076 0 -0.275299)
(-0.0192672 0 -0.0338298)
(0.00823181 3.73616e-18 0.0938918)
(0.0472264 0 0.187776)
(0.149769 0 0.444902)
(0.0287959 -2.47906e-19 0.489914)
(-0.288293 -6.86029e-18 0.557741)
(-0.793209 1.16923e-19 0.583738)
(-1.09571 0 0.849807)
(-1.22617 2.08276e-17 0.752022)
(-0.956438 3.70125e-17 0.399121)
(-0.184814 0 0.496777)
(-0.249264 3.50449e-17 -0.371625)
(-0.619629 -6.26467e-19 -0.141006)
(-1.71701 0 -0.154155)
(-1.34975 1.21766e-16 0.641129)
(1.39035 0 2.19954)
(2.6949 0 3.37107)
(-0.795681 0 0.154924)
(-1.42543 0 -1.6388)
(4.5053 1.83014e-16 -2.41173)
(7.1696 9.03596e-16 -1.451)
(2.07422 0 2.42637)
(-11.2903 0 -3.48802)
(-16.0392 -1.31705e-16 8.90165)
(1.80081 -2.33853e-17 -8.96229)
(25.3735 3.59391e-17 -19.05)
(-200.882 0 128.802)
(98.7422 0 -51.4801)
(132.809 0 -81.2761)
(-37.0036 4.77351e-17 8.69957)
(4.52621 3.32761e-16 -6.16054)
(-12.4228 2.88142e-16 8.72382)
(-8.18656 -1.2014e-15 12.7465)
(-0.36158 -4.64767e-17 9.63213)
(9.58173 2.78816e-15 -6.86037)
(54.4495 0 -41.2783)
(106.9 2.34241e-15 -66.3609)
(99.6577 0 -55.3982)
(62.9088 -2.52012e-16 -32.6269)
(15.2141 0 -3.41087)
(-45.2333 -1.90081e-15 28.2217)
(-81.0492 5.54696e-16 46.0065)
(-78.3223 0 45.0561)
(-58.4 0 34.454)
(-35.891 -4.23656e-16 21.5882)
(-22.9299 -5.13898e-16 13.0164)
(-9.91948 9.03962e-16 4.53281)
(-0.523424 2.08951e-16 -0.796966)
(-4.32213 -3.77262e-16 2.50522)
(-8.94604 0 5.88318)
(-8.01648 -1.0067e-15 5.45353)
(9.26146 0 -5.66826)
(31.079 0 -18.3016)
(29.1029 -1.35942e-15 -16.7202)
(3.14654 0 -0.539706)
(-14.3921 4.32275e-18 8.69443)
(-12.247 -8.09149e-16 6.68514)
(-6.90341 0 3.40714)
(-3.4899 0 1.67645)
(-1.50058 0 0.78179)
(1.08177 1.80942e-16 -0.304188)
(2.74501 -3.11698e-16 -0.916565)
(4.47805 -2.59875e-17 -2.18933)
(4.34341 0 -2.44014)
(3.57103 3.60739e-17 -2.19533)
(1.28961 0 -0.766347)
(-2.56226 -9.2478e-17 1.51269)
(-4.11446 -6.66865e-19 3.41976)
(-3.79979 2.79398e-19 2.82785)
(-3.72988 -2.44491e-18 1.98343)
(-3.06957 0 1.27145)
(-2.24385 -7.91657e-19 0.658941)
(-1.51749 -4.53757e-20 0.32256)
(-1.1171 0 0.180712)
(-1.09137 1.82489e-19 0.0849376)
(-1.25279 0 -0.000441061)
(-1.34674 -8.27308e-20 -0.0315433)
(-1.30381 0 -0.0356644)
(-1.16557 0 -0.0200795)
(-0.998945 0 0.0140444)
(-0.900795 0 0.0364505)
(-0.904778 3.7902e-19 0.0408903)
(-0.935346 0 0.0631288)
(-0.974433 0 0.0603574)
(-0.990931 0 0.0612293)
(-0.964922 -6.27845e-19 0.070453)
(-0.90204 1.87224e-19 0.0780112)
(-0.829246 0 0.0774077)
(-0.788253 1.78169e-19 0.0407826)
(-0.756714 0 -0.0126532)
(-0.680737 8.52207e-19 -0.00812497)
(-0.621537 0 -0.0181655)
(-0.640536 0 -0.135731)
(-0.604195 9.05557e-19 -0.145782)
(-0.679947 0 -0.256942)
(-0.618822 0 -0.188223)
(-0.400603 1.02739e-18 -0.096147)
(-0.13989 0 -0.0449497)
(0.099908 0 -0.0722587)
(0.320161 0 -0.145431)
(0.523766 0 -0.210224)
(0.698443 -2.93763e-19 -0.263361)
(0.834102 0 -0.29663)
(0.916384 0 -0.296933)
(0.935675 5.05404e-19 -0.268021)
(0.900826 0 -0.216074)
(0.8148 1.08287e-18 -0.140244)
(0.701104 -5.27383e-20 -0.0511707)
(0.584023 4.54362e-19 0.0363826)
(0.467207 0 0.113653)
(0.371829 0 0.163157)
(0.317312 -7.20359e-21 0.18635)
(0.311465 0 0.167937)
(0.353088 -8.76696e-19 0.100764)
(0.42597 0 -0.0167792)
(0.495061 2.09518e-19 -0.174992)
(0.529344 0 -0.356851)
(0.513427 0 -0.528712)
(0.432295 0 -0.663591)
(0.385122 -2.97419e-18 -0.601294)
(0.423747 0 -0.366157)
(0.391411 0 -0.283574)
(0.288736 0 -0.256858)
(0.13153 0 -0.105012)
(-0.162587 -9.22104e-18 0.178712)
(-0.710065 0 0.534839)
(-1.40826 2.14284e-19 0.957335)
(-2.05903 0 1.26943)
(-2.26478 -9.77441e-18 1.34401)
(-1.76062 -3.48963e-17 1.10192)
(-0.930553 0 0.534225)
(-0.380387 -3.20581e-17 -0.169994)
(-0.803502 -3.11025e-17 -0.441332)
(-1.84433 0 -0.0687636)
(-1.96913 -1.14672e-16 0.600469)
(0.409357 0 2.01023)
(1.3862 0 2.52281)
(-0.356822 0 0.320156)
(0.249912 0 -2.25544)
(7.60148 3.49364e-18 -4.4484)
(10.0617 -8.49757e-16 -3.02684)
(1.17433 0 2.12373)
(-16.3514 0 4.8538)
(-29.3017 -3.19099e-18 15.9436)
(12.6319 3.78282e-15 -15.8742)
(67.8019 -4.73745e-15 -35.3524)
(-334.79 0 198.845)
(133.772 0 -88.6964)
(217.922 0 -123.518)
(-42.516 -1.32258e-14 19.86)
(10.5052 -2.13074e-17 -9.52449)
(-23.8423 -2.70301e-16 16.3875)
(-16.0409 0 15.6628)
(-4.57053 3.7977e-17 8.15788)
(25.891 -2.61389e-15 -19.4314)
(106.967 0 -72.652)
(179.755 0 -108.286)
(152.637 2.39945e-15 -82.7246)
(86.056 0 -43.2392)
(16.3078 -1.73422e-16 7.12144)
(-77.9977 -1.51801e-17 49.3355)
(-130.458 -5.27836e-16 75.4107)
(-123.081 7.05234e-16 69.6401)
(-93.0509 0 52.537)
(-58.7301 3.96478e-16 33.2191)
(-36.3194 4.80855e-16 19.7544)
(-15.0266 -8.57514e-16 6.87439)
(-0.489656 0 -0.548817)
(-7.34639 -3.53555e-16 4.58979)
(-15.0606 0 9.46346)
(-11.4163 9.41332e-16 6.67029)
(18.6462 -8.26643e-16 -12.1339)
(52.3332 0 -31.127)
(44.629 1.27071e-15 -24.6204)
(1.20542 0 0.851169)
(-23.4144 -1.33626e-15 14.0763)
(-18.8933 7.56123e-16 10.3095)
(-10.3738 0 5.26299)
(-4.92109 0 2.32907)
(-1.90368 0 0.94692)
(2.14232 -3.60815e-19 -1.07013)
(4.53058 2.9115e-16 -2.30455)
(7.42196 3.14494e-17 -3.95272)
(6.98836 0 -4.00498)
(5.43466 3.29093e-17 -3.12982)
(1.47003 0 -0.685064)
(-4.76549 5.82882e-19 2.89048)
(-3.83406 4.8851e-19 2.5365)
(-4.63951 2.86034e-19 2.19259)
(-5.15716 8.46381e-19 1.96846)
(-4.97228 -5.8416e-19 1.5462)
(-4.29489 -4.52384e-19 1.01196)
(-3.43872 -1.05513e-18 0.674431)
(-2.79618 0 0.569833)
(-2.4965 0 0.542395)
(-2.39449 0 0.49956)
(-2.28704 7.83512e-20 0.462218)
(-2.10492 0 0.411752)
(-1.8599 0 0.362259)
(-1.62637 0 0.306713)
(-1.47382 0 0.243312)
(-1.41205 0 0.186239)
(-1.38126 2.03108e-19 0.158878)
(-1.35452 -2.88963e-19 0.135027)
(-1.29916 0 0.127801)
(-1.20946 0 0.132059)
(-1.09454 1.00747e-18 0.138238)
(-0.984618 -8.26499e-19 0.126898)
(-0.886986 9.51997e-19 0.108498)
(-0.776457 -7.3228e-19 0.114975)
(-0.680736 -8.07002e-19 0.11441)
(-0.641173 6.18454e-19 0.0811714)
(-0.625457 -5.38134e-19 0.000628811)
(-0.60091 0 -0.0589677)
(-0.68048 4.76691e-19 -0.269609)
(-0.523531 0 -0.160554)
(-0.269743 -9.72389e-19 -0.0566496)
(-0.00388846 0 -0.0594187)
(0.25154 0 -0.142473)
(0.512015 0 -0.241306)
(0.753674 3.69446e-19 -0.323897)
(0.955299 2.77915e-19 -0.385197)
(1.10469 0 -0.415065)
(1.18262 0 -0.400367)
(1.17875 -4.7796e-19 -0.345377)
(1.1056 0 -0.259682)
(0.967442 8.37922e-20 -0.143986)
(0.792846 5.19014e-19 -0.0149228)
(0.615203 0 0.10848)
(0.442122 0 0.216506)
(0.305324 0 0.289282)
(0.226743 0 0.320881)
(0.217408 -1.06993e-20 0.294242)
(0.280052 0 0.201601)
(0.399176 7.21349e-19 0.0414713)
(0.534384 1.34477e-18 -0.173275)
(0.646218 0 -0.422555)
(0.70644 0 -0.676374)
(0.706642 0 -0.874973)
(0.684905 2.80602e-18 -0.928216)
(0.684614 -2.32305e-18 -0.815205)
(0.629298 -2.98618e-18 -0.695512)
(0.482134 0 -0.545537)
(0.210159 1.34058e-18 -0.25076)
(-0.268881 8.0444e-18 0.208729)
(-1.05414 0 0.776919)
(-2.04874 6.51079e-18 1.34295)
(-2.95742 0 1.77914)
(-3.26817 8.77725e-18 1.9316)
(-2.65706 3.27392e-17 1.6184)
(-1.57444 0 0.756405)
(-0.630011 1.48784e-17 -0.155685)
(-0.814467 2.84396e-17 -0.459989)
(-1.88813 0 0.0719772)
(-2.27926 0 0.960138)
(-0.318711 0 2.01848)
(0.666319 -2.10189e-16 2.16761)
(0.155412 -1.73105e-16 -0.201732)
(2.155 0 -3.51922)
(11.1094 -8.43057e-17 -6.73818)
(13.0519 8.10648e-16 -4.77951)
(0.865097 0 2.39897)
(-22.5069 0 13.2817)
(-44.2186 1.19208e-16 23.2394)
(19.5107 5.43047e-17 -23.2571)
(114.79 0 -49.6187)
(-431.567 0 251.496)
(158.482 0 -124.272)
(293.19 0 -159.055)
(-40.2789 -5.83834e-17 26.6177)
(16.6609 -2.72766e-16 -13.1211)
(-36.174 0 25.0689)
(-21.3091 0 17.9269)
(-4.5099 0 6.10382)
(49.865 -2.50209e-15 -36.7116)
(163.354 0 -109.114)
(245.875 2.12673e-15 -147.306)
(190.353 -2.24695e-15 -101.991)
(94.7702 -1.93907e-16 -44.9098)
(4.29694 1.62354e-16 13.4551)
(-110.653 1.71968e-15 71.1097)
(-173.333 4.93993e-16 101.648)
(-159.045 -6.59919e-16 89.7136)
(-121.414 0 67.3016)
(-78.6612 0 43.2453)
(-47.8782 4.62879e-16 25.3634)
(-19.5602 4.04494e-16 8.57487)
(-1.0784 -1.80165e-16 -0.22994)
(-10.413 -1.19445e-18 6.75819)
(-20.2416 0 12.6016)
(-12.2744 0 6.49179)
(29.9747 7.72664e-16 -20.0531)
(72.1227 0 -43.1629)
(56.0824 -1.2172e-15 -30.213)
(-2.17939 0 3.93255)
(-31.1446 2.45838e-18 18.9477)
(-24.2818 0 13.1578)
(-13.2307 5.74809e-16 6.66419)
(-5.86897 -4.46138e-16 2.6219)
(-1.89142 -1.23762e-16 0.862296)
(3.57355 -7.0109e-19 -1.98213)
(6.54579 0 -3.58492)
(10.1415 -2.937e-17 -5.64024)
(9.161 -4.30976e-17 -5.25542)
(6.55096 -3.07296e-17 -3.6802)
(1.00724 0 -0.242786)
(-7.27841 7.00964e-19 4.44809)
(-3.92339 0 1.85683)
(-4.79491 3.54479e-20 1.77681)
(-5.60935 0 1.75063)
(-5.96214 5.51904e-19 1.53179)
(-5.79579 1.13509e-18 1.15658)
(-5.19008 4.79075e-19 0.945811)
(-4.54458 0 0.995817)
(-4.08751 0 1.12752)
(-3.78844 -1.06619e-19 1.16677)
(-3.52422 -4.82522e-20 1.11082)
(-3.21984 4.17031e-20 1.00326)
(-2.88098 1.12472e-19 0.870847)
(-2.56898 1.20049e-19 0.723426)
(-2.33311 0 0.580201)
(-2.17583 0 0.461465)
(-2.0527 -2.69149e-19 0.383227)
(-1.93689 1.19782e-19 0.329592)
(-1.79943 0 0.301138)
(-1.64075 2.65016e-19 0.281504)
(-1.46792 5.72279e-19 0.264574)
(-1.29933 7.81369e-19 0.245574)
(-1.13853 0 0.228903)
(-0.980375 6.92236e-19 0.239284)
(-0.85934 -5.13417e-19 0.222953)
(-0.771756 -5.84555e-19 0.201172)
(-0.675254 1.02515e-19 0.202366)
(-0.658938 0 0.124926)
(-0.635789 -1.37243e-19 -0.0137469)
(-0.436839 0 -0.0133439)
(-0.197614 -7.14147e-19 -0.0146118)
(0.0530364 0 -0.0939296)
(0.34904 0 -0.188286)
(0.633309 0 -0.340406)
(0.906755 -3.48936e-19 -0.43891)
(1.1334 0 -0.500539)
(1.29709 0 -0.518486)
(1.37448 0 -0.481225)
(1.35435 0 -0.394951)
(1.25219 7.1062e-19 -0.273626)
(1.07412 -1.27298e-18 -0.119446)
(0.852486 0 0.0449056)
(0.629328 -6.46342e-19 0.197424)
(0.416559 0 0.328656)
(0.253791 0 0.418055)
(0.161621 0 0.447691)
(0.157338 2.96548e-19 0.404882)
(0.245651 0 0.281971)
(0.411254 -6.80133e-19 0.0788074)
(0.608932 0 -0.186966)
(0.790569 0 -0.491278)
(0.918733 -1.66264e-18 -0.802805)
(0.975063 0 -1.05731)
(0.968522 0 -1.18741)
(0.938839 7.35059e-20 -1.13834)
(0.838511 2.81258e-18 -0.992863)
(0.626342 0 -0.739915)
(0.246469 -3.11278e-19 -0.295577)
(-0.403728 -6.86009e-18 0.330295)
(-1.41346 0 1.07418)
(-2.66195 -2.91512e-18 1.78453)
(-3.80117 0 2.32397)
(-4.23737 -8.2572e-18 2.49625)
(-3.57804 -3.07938e-17 2.05309)
(-2.2358 0 0.982105)
(-0.916795 -1.37127e-17 -0.176138)
(-0.776284 -4.83757e-19 -0.43814)
(-1.85571 0 0.23114)
(-2.46429 0 1.33031)
(-0.754634 0 2.18824)
(0.378376 3.97926e-16 1.92238)
(1.01788 -3.11569e-18 -1.0526)
(4.47864 0 -5.23746)
(15.027 8.75105e-17 -9.3249)
(16.3113 -1.52628e-15 -6.49067)
(0.956729 0 3.28499)
(-30.4518 0 21.435)
(-61.1424 0 31.1217)
(19.5735 5.97825e-17 -29.5438)
(155.274 0 -56.7669)
(-475.133 0 274.729)
(173.601 0 -170.379)
(360.888 0 -188.922)
(-28.9524 5.89016e-15 29.706)
(23.0864 -1.84003e-16 -16.5567)
(-48.4238 0 34.2163)
(-24.9829 0 18.9272)
(-1.2025 0 0.530915)
(80.3459 -2.96326e-17 -59.9097)
(222.388 0 -148.661)
(303.396 -1.99089e-15 -180.38)
(212.039 0 -109.585)
(90.3852 1.81473e-16 -36.8665)
(-8.81934 0 30.3756)
(-140.637 -8.1368e-16 92.7303)
(-209.071 0 123.241)
(-186.771 0 104.013)
(-143.903 0 77.8621)
(-96.2304 0 51.1672)
(-58.1802 -4.32814e-16 29.721)
(-23.7127 0 9.68763)
(-2.16576 1.68426e-16 0.34187)
(-13.42 3.10122e-16 8.98842)
(-24.3387 0 15.0247)
(-10.9171 0 4.53538)
(42.5088 0 -29.2954)
(89.7996 0 -53.8925)
(64.1317 -1.99583e-17 -32.9822)
(-5.93456 0 8.88417)
(-37.7047 1.15723e-15 23.053)
(-28.6038 0 15.1517)
(-15.5647 -1.07407e-15 7.59483)
(-6.37774 4.16682e-16 2.65665)
(-1.59292 1.15583e-16 0.516002)
(5.15257 -1.46458e-16 -3.07392)
(8.48219 0 -4.87888)
(12.4642 0 -7.12783)
(10.7555 8.01598e-17 -6.10611)
(6.95453 -2.75951e-17 -3.72162)
(0.0052534 3.75758e-17 0.632322)
(-10.0161 3.63031e-17 6.19403)
(-4.00202 0 1.57602)
(-4.77439 -1.03383e-18 1.53142)
(-5.54344 0 1.52743)
(-6.15857 0 1.39652)
(-6.41736 0 1.17148)
(-6.2177 0 1.0885)
(-5.8314 0 1.28907)
(-5.47142 2.57243e-19 1.61055)
(-5.17611 1.00609e-19 1.78696)
(-4.88659 1.40493e-19 1.76252)
(-4.54479 -1.1451e-19 1.62552)
(-4.1578 -1.06157e-19 1.43476)
(-3.7767 -1.13317e-19 1.22171)
(-3.44632 0 1.018)
(-3.17596 0 0.850393)
(-2.94348 5.62393e-20 0.723684)
(-2.72531 1.93167e-19 0.63084)
(-2.49797 0 0.564762)
(-2.26061 -2.5015e-19 0.514434)
(-2.01847 -5.40166e-19 0.467387)
(-1.78503 0 0.424647)
(-1.55885 -4.31933e-19 0.389993)
(-1.34803 0 0.37643)
(-1.16658 8.74589e-20 0.370624)
(-1.0122 3.76783e-19 0.362002)
(-0.868379 6.4954e-20 0.375891)
(-0.798406 0 0.303568)
(-0.631362 -2.95529e-19 0.290639)
(-0.428807 5.60153e-19 0.209202)
(-0.208444 1.32416e-18 0.0918924)
(0.0457997 6.85748e-19 -0.094883)
(0.325509 0 -0.295738)
(0.677115 6.05747e-19 -0.391855)
(0.976992 0 -0.523392)
(1.22734 0 -0.583977)
(1.40707 0 -0.586394)
(1.48877 0 -0.525101)
(1.46033 0 -0.408284)
(1.33952 1.3932e-19 -0.254786)
(1.13447 6.48644e-19 -0.0680296)
(0.879606 0 0.122948)
(0.625098 1.33934e-18 0.294318)
(0.386399 0 0.437152)
(0.206498 0 0.526854)
(0.109284 0 0.543332)
(0.115451 -2.69867e-19 0.475382)
(0.230598 0 0.316443)
(0.439218 0 0.0685499)
(0.691679 0 -0.245018)
(0.931802 0 -0.595925)
(1.1162 2.90604e-18 -0.946886)
(1.21409 0 -1.23609)
(1.21939 0 -1.40211)
(1.16304 1.9899e-18 -1.37659)
(1.01394 0 -1.19236)
(0.734032 0 -0.83804)
(0.247082 -1.4587e-18 -0.262053)
(-0.558449 3.04614e-18 0.511461)
(-1.7671 0 1.40379)
(-3.23165 0 2.24555)
(-4.57615 0 2.8675)
(-5.147 7.28911e-18 3.02808)
(-4.47306 0 2.45061)
(-2.90366 0 1.18081)
(-1.43369 2.37824e-17 -0.58271)
(-0.717298 -4.88971e-17 -0.420338)
(-1.74503 0 0.366015)
(-2.51553 0 1.62845)
(-0.917702 0 2.34175)
(0.476243 -1.88165e-16 1.54982)
(2.27086 1.55492e-16 -2.32395)
(7.27609 -3.07629e-16 -7.46082)
(19.3805 -8.20947e-17 -12.1904)
(19.8716 7.17862e-16 -8.14008)
(1.19614 2.40485e-16 4.83793)
(-40.2285 0 30.1946)
(-80.223 0 39.8643)
(12.0189 -1.68309e-15 -34.0582)
(181.429 0 -53.9599)
(-456.352 0 262.235)
(202.492 0 -192.101)
(425.047 0 -213.954)
(-7.96953 0 29.584)
(29.9602 2.91597e-16 -19.5503)
(-59.4399 0 43.1203)
(-27.5822 -7.56379e-16 18.77)
(7.4146 0 -6.09001)
(116.694 -2.89396e-17 -88.5664)
(281.889 -2.55626e-15 -189.459)
(349.409 0 -205.78)
(216.306 0 -104.838)
(76.5201 0 -22.5011)
(-24.3613 0 47.664)
(-167.713 7.97693e-16 113.371)
(-236.787 0 140.501)
(-206.377 0 113.547)
(-160.502 0 84.9058)
(-111.682 0 57.6475)
(-67.5773 0 33.1939)
(-27.7006 0 10.3977)
(-3.73269 0 1.13226)
(-16.2755 0 11.2116)
(-27.1771 2.94274e-16 16.6357)
(-7.52825 0 0.989943)
(55.6331 0 -39.3193)
(104.828 0 -63.0884)
(68.9093 1.08099e-15 -33.4035)
(-11.7355 0 11.194)
(-42.9057 -5.38715e-16 26.4495)
(-31.9307 0 16.5386)
(-17.4204 3.09366e-19 8.17576)
(-6.55451 0 2.46475)
(-1.08593 -1.07682e-16 0.0240974)
(6.76635 0 -4.1713)
(10.2228 0 -6.00857)
(14.2836 0 -8.2397)
(11.681 -3.72691e-17 -6.54229)
(6.66028 5.09427e-17 -3.34575)
(-1.47212 -7.16331e-17 1.81684)
(-12.9105 3.24238e-17 8.05878)
(-4.04531 0 1.45451)
(-4.78216 9.3226e-19 1.40872)
(-5.38653 0 1.39212)
(-5.94792 0 1.32896)
(-6.35062 -3.51071e-20 1.22145)
(-6.44484 -2.46552e-19 1.2056)
(-6.36323 3.25169e-19 1.4664)
(-6.25737 -8.17619e-19 1.9118)
(-6.17518 0 2.22576)
(-6.0618 3.95876e-20 2.27598)
(-5.8485 7.08138e-20 2.15716)
(-5.52937 0 1.96176)
(-5.1502 0 1.7327)
(-4.76249 0 1.50639)
(-4.3959 0 1.31418)
(-4.05566 -5.29052e-20 1.15735)
(-3.73216 -6.11754e-20 1.03097)
(-3.41018 -4.09597e-20 0.925819)
(-3.08617 -8.64563e-20 0.837295)
(-2.76282 0 0.757192)
(-2.45573 2.92901e-19 0.682008)
(-2.15704 4.07093e-19 0.622673)
(-1.88099 0 0.5752)
(-1.63118 5.48201e-20 0.550396)
(-1.40647 -4.6899e-20 0.528624)
(-1.19358 2.99924e-19 0.539452)
(-1.03336 0 0.49026)
(-0.806095 0 0.470201)
(-0.571216 -5.27793e-19 0.350877)
(-0.323115 3.1286e-20 0.194419)
(-0.0580456 -1.3639e-18 -0.0111154)
(0.27222 0 -0.272739)
(0.605268 -1.28183e-18 -0.515391)
(0.968851 0 -0.549441)
(1.2411 0 -0.624312)
(1.43691 4.62667e-19 -0.620413)
(1.53062 0 -0.536652)
(1.50482 9.07226e-19 -0.391731)
(1.37831 1.44169e-19 -0.210477)
(1.16085 -8.36555e-19 0.00282388)
(0.887184 0 0.212356)
(0.615208 1.24527e-19 0.39348)
(0.36279 0 0.537857)
(0.174361 0 0.616582)
(0.0784197 0 0.611319)
(0.0972898 0 0.511715)
(0.237008 0 0.313147)
(0.481876 -2.87707e-19 0.0205866)
(0.77869 0 -0.336254)
(1.0643 0 -0.724542)
(1.29041 -1.26089e-18 -1.10137)
(1.41641 0 -1.40584)
(1.42537 -1.86708e-18 -1.58173)
(1.34063 -1.79838e-18 -1.55664)
(1.14638 2.747e-18 -1.32071)
(0.804948 0 -0.864315)
(0.224099 5.30161e-19 -0.165399)
(-0.712934 2.09048e-18 0.740301)
(-2.08704 0 1.7607)
(-3.73419 0 2.70945)
(-5.25911 0 3.39256)
(-5.97032 -6.84405e-18 3.52269)
(-5.32339 0 2.80625)
(-3.63347 0 1.3379)
(-1.69019 -1.02256e-17 -0.535262)
(-0.573894 4.52499e-17 -0.418825)
(-1.54601 0 0.448199)
(-2.39762 0 1.82715)
(-0.80794 0 2.34826)
(0.962802 0 0.902707)
(3.98081 1.51059e-16 -4.03462)
(10.5848 2.88432e-16 -10.1788)
(24.1242 0 -15.3133)
(23.6749 0 -9.67162)
(1.27728 -2.25382e-16 7.29793)
(-51.8594 0 40.5721)
(-101.145 1.2656e-16 49.5178)
(-0.984483 -1.68882e-15 -37.711)
(192.208 0 -43.2095)
(-374.595 0 216.64)
(198.17 0 -265.633)
(483.514 0 -236.763)
(22.5577 0 26.6731)
(37.5704 -1.1165e-16 -21.8371)
(-68.0007 0 51.1457)
(-29.1848 1.36165e-15 17.4165)
(26.4657 0 -5.7527)
(157.584 -2.55133e-17 -121.8)
(338.885 2.24725e-17 -229.695)
(381.413 0 -221.16)
(203.079 2.0937e-15 -87.9668)
(56.5087 0 -4.22954)
(-44.7156 0 52.9236)
(-189.44 -1.50697e-15 131.794)
(-256.876 0 152.95)
(-219.071 0 118.515)
(-171.799 0 88.588)
(-125.736 0 63.0843)
(-76.6065 0 35.9169)
(-31.8074 0 10.8455)
(-5.74247 0 2.14127)
(-18.9019 0 13.3485)
(-28.7263 -2.74924e-16 17.3353)
(-2.34129 0 -3.7706)
(68.7274 0 -49.6642)
(116.973 0 -70.4842)
(71.0699 -1.05005e-15 -31.6664)
(-14.8492 -4.33678e-16 17.7807)
(-46.8667 4.93431e-16 29.1857)
(-34.5144 -5.80883e-16 17.2945)
(-18.9179 1.08267e-18 8.42988)
(-6.51789 3.63828e-16 2.08831)
(-0.515365 2.00848e-16 -0.573002)
(8.21427 0 -5.24682)
(11.5787 2.12565e-16 -6.97157)
(15.4674 -2.87738e-17 -9.0128)
(11.9747 0 -6.53087)
(5.82808 -2.3506e-17 -2.57099)
(-3.25179 3.41225e-17 3.2643)
(-15.8625 -3.02646e-17 9.99469)
(-4.06942 0 1.44368)
(-4.80738 -4.26231e-19 1.3865)
(-5.266 0 1.37548)
(-5.64747 0 1.38054)
(-5.98236 3.30583e-20 1.35631)
(-6.16885 2.32112e-19 1.35695)
(-6.26282 -3.06072e-19 1.58959)
(-6.36991 8.34378e-19 2.05321)
(-6.5409 0 2.44495)
(-6.71097 1.75571e-19 2.56942)
(-6.77672 -1.97641e-19 2.50174)
(-6.68832 0 2.3533)
(-6.45854 1.72752e-19 2.1651)
(-6.12912 0 1.96555)
(-5.7464 1.27796e-19 1.78743)
(-5.34686 6.44846e-20 1.63264)
(-4.94652 1.47002e-20 1.49387)
(-4.54429 3.8551e-20 1.36211)
(-4.1381 1.29923e-19 1.24035)
(-3.73422 0 1.1237)
(-3.34489 -2.75706e-19 1.0147)
(-2.96512 0 0.921404)
(-2.6079 0 0.845216)
(-2.27986 3.00639e-19 0.789301)
(-1.95889 -5.66842e-19 0.752649)
(-1.67346 0 0.723475)
(-1.4276 0 0.667788)
(-1.13866 0 0.604248)
(-0.853443 5.74038e-19 0.469526)
(-0.569549 -6.06064e-19 0.265376)
(-0.239681 -7.15489e-20 0.0579106)
(0.110143 -7.98333e-19 -0.144908)
(0.46148 1.46292e-18 -0.473641)
(0.810849 -6.93101e-19 -0.691745)
(1.13887 6.08027e-19 -0.658307)
(1.38891 9.84456e-20 -0.607493)
(1.50392 0 -0.514463)
(1.49348 -8.53258e-19 -0.348408)
(1.37667 -8.5207e-19 -0.144489)
(1.16246 7.86667e-19 0.0890808)
(0.884507 0 0.309656)
(0.608056 -7.63297e-19 0.492334)
(0.35238 -8.06705e-19 0.629553)
(0.16243 -7.34803e-19 0.689111)
(0.0709731 -6.54288e-19 0.655057)
(0.101477 0 0.518891)
(0.260291 0 0.278568)
(0.53189 -2.79339e-19 -0.0575601)
(0.860684 0 -0.452828)
(1.17781 0 -0.870121)
(1.43146 -8.02246e-19 -1.26163)
(1.5739 1.36648e-18 -1.56618)
(1.5811 1.75352e-18 -1.7316)
(1.4719 4.27076e-21 -1.68589)
(1.24058 1.43934e-19 -1.39)
(0.848392 0 -0.835824)
(0.192836 0 -0.0235018)
(-0.846597 -3.54757e-18 1.00018)
(-2.34939 0 2.1303)
(-4.14306 0 3.16655)
(-5.82647 -4.57842e-19 3.88772)
(-6.68609 0 3.97176)
(-6.11282 0 3.11253)
(-4.28333 -1.69988e-17 1.47035)
(-1.6576 7.4048e-18 0.0140983)
(-0.473579 -4.21139e-17 -0.458345)
(-1.24596 0 0.466554)
(-2.07782 -8.66833e-17 1.91145)
(-0.393354 0 2.1564)
(1.87047 0 -0.0789351)
(6.17348 -2.85247e-16 -6.2103)
(14.3804 0 -13.371)
(29.1559 0 -18.6226)
(27.5756 0 -10.9707)
(0.840172 0 11.037)
(-65.473 0 53.2358)
(-122.748 -1.18516e-16 59.5073)
(-13.5363 -4.78949e-17 -43.5696)
(193.537 -3.39532e-15 -30.4462)
(-255.859 2.17685e-15 147.173)
(200.484 0 -290.788)
(545.7 0 -255.643)
(62.099 0 21.6221)
(46.2719 0 -23.213)
(-73.0008 0 57.7296)
(-29.3236 -5.71979e-17 14.6911)
(41.5902 0 -24.1485)
(201.554 1.99233e-15 -159.014)
(390.881 4.34677e-17 -267.47)
(397.25 0 -224.694)
(174.256 -1.95755e-15 -60.0131)
(36.941 0 14.2906)
(-52.7608 3.86263e-17 69.6965)
(-206.199 -1.1356e-17 147.74)
(-269.84 0 161.246)
(-226.008 0 119.905)
(-178.423 0 89.5551)
(-139.161 0 67.9259)
(-85.6259 -3.64922e-16 38.2745)
(-36.3332 0 11.1902)
(-8.19611 0 3.34855)
(-21.2509 2.55171e-16 15.3326)
(-29.0068 0 17.1074)
(3.80638 7.06589e-16 -10.2279)
(81.1435 -6.22566e-16 -60.0056)
(126.167 0 -75.965)
(71.3896 1.97986e-15 -28.2781)
(-16.9465 -1.96147e-17 24.6705)
(-49.8859 -9.15175e-16 31.327)
(-36.4744 5.4238e-16 17.6545)
(-20.1564 4.36098e-16 8.4461)
(-6.38734 -3.3968e-16 1.58612)
(0.0113448 -9.36454e-17 -1.18298)
(9.39324 1.15309e-16 -6.16597)
(12.5006 -1.98433e-16 -7.64325)
(16.0525 2.68599e-17 -9.35381)
(11.6903 3.08789e-17 -6.16303)
(4.63723 2.10926e-17 -1.55616)
(-5.14399 0 4.83244)
(-18.7634 0 11.9385)
(-4.06918 0 1.51511)
(-4.78117 -3.37938e-19 1.46512)
(-5.15571 0 1.46009)
(-5.40426 0 1.50467)
(-5.61277 0 1.53036)
(-5.74604 0 1.52933)
(-5.86886 2.63513e-19 1.69074)
(-6.06001 -2.75493e-19 2.09266)
(-6.36855 2.21267e-19 2.49054)
(-6.74579 -2.79221e-19 2.65681)
(-7.08555 1.85786e-19 2.63822)
(-7.30512 0 2.55618)
(-7.36532 -1.6239e-19 2.4445)
(-7.25896 0 2.31233)
(-7.01141 -1.20142e-19 2.18846)
(-6.67078 -7.11276e-20 2.07628)
(-6.27881 0 1.96127)
(-5.85425 0 1.83098)
(-5.40333 -4.56379e-20 1.69362)
(-4.93761 0 1.55134)
(-4.47216 0 1.4157)
(-4.01233 2.42659e-19 1.2885)
(-3.56724 0 1.17845)
(-3.14149 0 1.09164)
(-2.72232 2.60225e-19 1.03321)
(-2.35079 0 0.950384)
(-1.99523 0 0.877006)
(-1.63662 0 0.766806)
(-1.29763 -1.16714e-18 0.589102)
(-0.962679 0 0.360045)
(-0.609734 -7.22469e-20 0.102639)
(-0.214049 -5.8502e-20 -0.147297)
(0.218187 -7.46057e-19 -0.305354)
(0.575767 6.51377e-19 -0.614843)
(0.967589 -1.24228e-18 -0.690715)
(1.22953 -5.01472e-19 -0.62078)
(1.3974 0 -0.469515)
(1.42772 0 -0.278357)
(1.33692 -1.06693e-18 -0.0609472)
(1.14347 9.40796e-19 0.188816)
(0.87512 0 0.413029)
(0.605929 0 0.590048)
(0.355691 -1.16608e-19 0.713062)
(0.169025 6.90096e-19 0.747271)
(0.0827266 6.1443e-19 0.679366)
(0.121299 1.26517e-18 0.503661)
(0.291548 0 0.221065)
(0.578865 -2.37176e-19 -0.156586)
(0.926852 0 -0.585323)
(1.26245 0 -1.02412)
(1.53203 7.52971e-19 -1.42108)
(1.68304 -1.28243e-18 -1.71414)
(1.68728 0 -1.85437)
(1.56152 1.58061e-18 -1.77329)
(1.30586 1.58537e-19 -1.41347)
(0.879115 0 -0.767938)
(0.17283 0 0.147865)
(-0.936896 2.63187e-18 1.2763)
(-2.53102 0 2.49947)
(-4.43624 0 3.6057)
(-6.25758 1.2512e-18 4.34561)
(-7.27638 0 4.37058)
(-6.82568 0 3.36645)
(-4.92761 3.14298e-17 1.57073)
(-1.97962 -6.94023e-18 -0.0560777)
(-0.353107 1.96932e-17 -0.559934)
(-0.84067 0 0.409803)
(-1.5398 8.1215e-17 1.86349)
(0.349 0 1.73181)
(3.21478 1.61288e-16 -1.43455)
(8.82346 1.34576e-16 -8.88748)
(18.5917 0 -16.9736)
(34.3173 0 -22.0084)
(31.3676 -5.97963e-16 -11.8416)
(-0.533346 2.18336e-16 16.4951)
(-81.0408 0 68.4553)
(-142.527 0 68.1429)
(-15.5086 3.08681e-15 -57.2841)
(192.51 3.17737e-15 -21.4514)
(-116.856 -4.12321e-15 68.0283)
(185.592 0 -258.89)
(593.615 0 -272.436)
(109.213 0 15.4284)
(56.3847 0 -23.5285)
(-73.5896 0 62.4656)
(-29.0631 -5.92374e-17 10.1324)
(54.9526 0 -57.7704)
(247.775 0 -199.494)
(435.553 6.57419e-17 -299.943)
(395.569 0 -214.94)
(133.569 -1.91514e-15 -23.5217)
(21.9228 0 29.5737)
(-57.9809 -3.60993e-17 78.0047)
(-217.19 -6.88014e-18 160.991)
(-276.858 0 165.814)
(-228.626 0 118.444)
(-181.394 0 88.4834)
(-152.433 0 72.5999)
(-95.0876 4.96302e-18 40.4456)
(-41.5686 -3.37703e-16 11.562)
(-11.1267 -1.21877e-16 4.74495)
(-23.3338 -2.38327e-16 17.122)
(-28.2523 0 15.972)
(11.091 -6.59871e-16 -16.9688)
(92.5103 5.8137e-16 -69.9298)
(132.507 0 -79.449)
(70.4975 -9.33059e-16 -23.6749)
(-19.6705 8.09626e-16 28.3552)
(-52.1267 4.24281e-16 32.9349)
(-37.9889 0 17.7124)
(-21.2564 -4.0219e-16 8.28132)
(-6.27821 0 1.02164)
(0.381483 0 -1.75383)
(10.1821 -1.07638e-16 -6.91149)
(12.9218 0 -8.0569)