/*--------------------------------*- C++ -*----------------------------------*\
| =========                 |                                                 |
| \\      /  F ield         | OpenFOAM: The Open Source CFD Toolbox           |
|  \\    /   O peration     | Version:  2412                                  |
|   \\  /    A nd           | Website:  www.openfoam.com                      |
|    \\/     M anipulation  |                                                 |
\*---------------------------------------------------------------------------*/
FoamFile
{
    version     2.0;
    format      ascii;
    arch        "LSB;label=32;scalar=64";
    class       volVectorField;
    location    "0.67";
    object      ddt0(U);
}
// * * * * * * * * * * * * * * * * * * * * * * * * * * * * * * * * * * * * * //

dimensions      [0 1 -2 0 0 0 0];

internalField   nonuniform List<vector> 
12600
(
(-0.154724 1.003e-21 0.0419727)
(-0.00423019 1.20457e-21 0.00456134)
(-0.0218855 1.24487e-21 -0.00289952)
(-0.0181171 0 -0.00110801)
(-0.0119128 1.2427e-21 -0.000836232)
(-0.0115679 1.22508e-21 -0.00119378)
(-0.0142881 0 -0.0014619)
(-0.0183597 0 -0.00115275)
(-0.0230232 -4.2759e-21 -0.000484508)
(-0.0280827 0 0.000355862)
(-0.0330362 1.71761e-21 0.00113533)
(-0.0372593 1.46544e-21 0.00175564)
(-0.0404919 -1.19561e-21 0.00227513)
(-0.0429159 0 0.00278622)
(-0.0447933 -6.24116e-22 0.0033087)
(-0.0461824 0 0.00379913)
(-0.0470003 3.68834e-23 0.00421934)
(-0.0472152 0 0.00456864)
(-0.0469035 1.18721e-21 0.00486361)
(-0.046176 1.78893e-21 0.00511075)
(-0.045108 -2.3427e-21 0.00530373)
(-0.0437375 -1.91857e-23 0.00543683)
(-0.0420911 0 0.0055125)
(-0.0401916 7.51203e-21 0.00553681)
(-0.0380482 0 0.00551183)
(-0.0356509 0 0.00543372)
(-0.0329812 9.42953e-21 0.0052965)
(-0.030029 0 0.00509665)
(-0.026803 2.04191e-23 0.00483415)
(-0.0233284 -1.01499e-20 0.00451053)
(-0.019638 -1.01281e-20 0.00412679)
(-0.0157742 -9.97884e-21 0.00368508)
(-0.0117976 9.71233e-21 0.0031912)
(-0.00779902 1.86837e-20 0.00265711)
(-0.00389763 1.77658e-20 0.0021001)
(-0.00023584 -1.67047e-20 0.00154186)
(0.0030392 0 0.00100534)
(0.00578482 1.43129e-20 0.000514438)
(0.00787789 0 9.20764e-05)
(0.0092131 -1.18073e-20 -0.000238584)
(0.00971816 0 -0.000457447)
(0.00935812 -2.00414e-23 -0.000548519)
(0.00815938 0 -0.000505267)
(0.00620896 -1.94843e-23 -0.000330989)
(0.00365873 -1.27343e-20 -4.06325e-05)
(0.000706025 1.09531e-20 0.000341274)
(-0.00242524 -9.20606e-21 0.000783032)
(-0.00550605 0 0.00124763)
(-0.00834167 0 0.00170052)
(-0.0107672 -4.26654e-21 0.00210702)
(-0.0127036 -5.45375e-21 0.00244629)
(-0.0140979 -2.62707e-21 0.00269871)
(-0.0150151 -3.73026e-23 0.00286932)
(-0.0154888 1.70264e-21 0.00295676)
(-0.0156784 0 0.00298973)
(-0.0156007 -3.65089e-21 0.00296985)
(-0.0154242 -3.66045e-21 0.00293423)
(-0.0150611 -3.1678e-21 0.00286745)
(-0.0146759 0 0.0028065)
(-0.0140817 0 0.00271322)
(-0.0135263 0 0.00263553)
(-0.0127962 1.14712e-21 0.00252374)
(-0.0123214 0 0.00245623)
(-0.0118829 0 0.00238016)
(-0.0120896 -7.1765e-21 0.00240932)
(-0.012604 0 0.002473)
(-0.0140809 0 0.00270056)
(-0.0159258 0 0.00298037)
(-0.0187168 1.26907e-20 0.00343435)
(-0.0216171 -1.10443e-20 0.00390939)
(-0.0251129 -8.44398e-21 0.00451084)
(-0.0283456 1.16625e-23 0.00507841)
(-0.0317358 3.48034e-21 0.00569893)
(-0.0347555 0 0.00626909)
(-0.0375799 -1.26455e-21 0.0068235)
(-0.0402746 0 0.00736995)
(-0.0424107 0 0.00782536)
(-0.0449462 0 0.00836702)
(-0.0462792 -6.95244e-25 0.00868709)
(-0.0487661 -1.26399e-21 0.00922908)
(-0.0491235 1.0888e-20 0.00936593)
(-0.0515889 -1.1443e-20 0.00990107)
(-0.0507908 -2.18379e-20 0.00981055)
(-0.0533016 0 0.010346)
(-0.051375 0 0.0100281)
(-0.0540335 5.20779e-20 0.0105816)
(-0.0513517 -1.26924e-19 0.010102)
(-0.0542339 8.70135e-20 0.0106855)
(-0.0515069 5.20752e-20 0.0101693)
(-0.0546332 0 0.0107462)
(-0.0525441 -5.20139e-20 0.0102876)
(-0.0561892 4.76387e-20 0.0108503)
(-0.0554112 -3.45311e-20 0.0104946)
(-0.0591932 8.93283e-20 0.0113566)
(-0.0515254 0 0.0108678)
(-0.0473723 0 0.0109775)
(-0.0361697 0 0.00700387)
(-0.0377085 0 0.00654411)
(-0.0348707 0 0.0058989)
(-0.0274964 0 0.00590174)
(0.0139059 4.66878e-19 -0.00135141)
(-0.166775 -6.91785e-19 0.031901)
(0.190173 1.22356e-18 -0.0355257)
(0.00833596 0 -0.0022271)
(-1.36256 0 0.254163)
(1.14286 0 -0.235086)
(1.98139 4.74439e-18 -0.35517)
(-4.41226 -3.07761e-18 0.842026)
(1.57874 1.29302e-18 -0.360011)
(7.18251 0 -1.17983)
(-6.90233 1.25348e-17 1.40417)
(-9.15505 0 1.6657)
(6.40124 -7.60976e-18 -1.29312)
(9.26762 2.53915e-18 -1.65623)
(-2.07492 7.70025e-18 0.505351)
(-6.30377 2.76088e-18 1.20521)
(-4.3931 -2.57276e-18 0.826464)
(-3.01108 -4.24772e-21 0.55563)
(-0.388089 7.27724e-19 0.0593292)
(0.596804 0 -0.114592)
(-0.122283 -1.01324e-21 0.0895615)
(-0.0559498 0 0.016252)
(-0.0469053 -1.25998e-21 -0.00787875)
(-0.0304752 0 -0.0067729)
(-0.014184 -1.25928e-21 -0.00519095)
(-0.00709902 -2.46203e-21 -0.00497618)
(-0.00678099 -1.19849e-21 -0.00486809)
(-0.0109107 0 -0.0040456)
(-0.0181575 1.26541e-23 -0.00255516)
(-0.0273628 -1.9655e-21 -0.000920061)
(-0.0368565 1.74216e-21 0.000256837)
(-0.0450841 1.49309e-21 0.000927351)
(-0.0516353 -1.22496e-21 0.00152187)
(-0.0571241 9.41672e-22 0.0023934)
(-0.0621742 1.27924e-21 0.00351191)
(-0.066815 0 0.0046508)
(-0.0707597 3.00678e-23 0.00568128)
(-0.0738883 -5.62566e-22 0.00662848)
(-0.0763219 -1.20424e-21 0.00754662)
(-0.0782048 0 0.0084315)
(-0.0795792 0 0.00924377)
(-0.0804408 -2.8819e-21 0.00996344)
(-0.0808151 0 0.0105992)
(-0.0807423 -3.79929e-21 0.0111599)
(-0.0802198 8.30783e-21 0.011634)
(-0.0791856 0 0.0119951)
(-0.0775554 -9.4836e-21 0.0122195)
(-0.0752695 0 0.012297)
(-0.0723068 1.01671e-20 0.0122251)
(-0.0686676 2.05305e-20 0.0120004)
(-0.0643532 2.04872e-20 0.0116147)
(-0.0593806 1.01004e-20 0.0110637)
(-0.0538097 -9.82791e-21 0.0103546)
(-0.0477717 -3.77891e-20 0.00951064)
(-0.0414587 -3.5929e-20 0.0085655)
(-0.0351119 0 0.00756093)
(-0.0289818 0 0.00653908)
(-0.0233241 1.14022e-23 0.00554587)
(-0.0183744 0 0.00462746)
(-0.0143684 1.192e-20 0.0038363)
(-0.0115048 0 0.00322114)
(-0.00994595 1.90379e-20 0.00282589)
(-0.00975274 0 0.00267564)
(-0.0108965 1.47749e-20 0.0027779)
(-0.0132273 0 0.0031179)
(-0.0165166 -1.10291e-20 0.00366122)
(-0.0204622 0 0.00435953)
(-0.0247277 0 0.00514698)
(-0.0289926 5.96399e-21 0.0059638)
(-0.0329394 0 0.00673436)
(-0.0363682 0 0.00741836)
(-0.0390751 0 0.00795517)
(-0.0410941 2.21791e-22 0.00835838)
(-0.0423669 -3.36642e-21 0.0085959)
(-0.0431709 0 0.00874406)
(-0.0434668 0 0.00877224)
(-0.043671 3.65395e-21 0.00879788)
(-0.0435776 3.16767e-21 0.00874583)
(-0.0436763 0 0.00875729)
(-0.0434999 0 0.00868636)
(-0.0437038 0 0.00871824)
(-0.0436063 0 0.00864561)
(-0.0442124 1.35063e-21 0.00874168)
(-0.0446689 -2.15937e-21 0.0087496)
(-0.0464113 7.10002e-21 0.00905204)
(-0.0482672 0 0.0093123)
(-0.0519641 0 0.00999646)
(-0.0558284 0 0.0106482)
(-0.0616901 -8.6804e-24 0.0117768)
(-0.0674344 1.09386e-20 0.0128143)
(-0.074847 8.35554e-21 0.0142777)
(-0.0817575 -1.22536e-20 0.015565)
(-0.0896993 8.43656e-24 0.0171547)
(-0.0971698 2.87836e-21 0.0185667)
(-0.104784 1.24641e-21 0.0201017)
(-0.112497 0 0.0215797)
(-0.119111 0 0.0229305)
(-0.127134 0 0.0244981)
(-0.132081 1.56236e-21 0.0255243)
(-0.140623 0 0.0272138)
(-0.143394 0 0.0277852)
(-0.152692 1.11995e-20 0.0296182)
(-0.152819 2.13503e-20 0.0296167)
(-0.163094 0 0.0316236)
(-0.160311 0 0.0309966)
(-0.171424 0 0.0331581)
(-0.165986 1.23554e-19 0.0319898)
(-0.177505 1.81893e-23 0.0342307)
(-0.170679 5.06357e-20 0.0328186)
(-0.182052 -3.92164e-20 0.0350044)
(-0.174984 5.04712e-20 0.0334971)
(-0.185591 4.61259e-20 0.0353852)
(-0.178462 6.67301e-20 0.0339463)
(-0.188506 0 0.0359811)
(-0.170503 0 0.0338986)
(-0.17375 0 0.0352595)
(-0.148071 0 0.0277349)
(-0.158998 -2.11349e-19 0.0278533)
(-0.143351 0 0.0245959)
(-0.108188 0 0.0203649)
(-0.0027241 4.46776e-19 0.00388091)
(-0.499249 3.31206e-19 0.0947194)
(0.535503 -2.34175e-18 -0.106756)
(-0.145547 -2.65657e-20 0.0513115)
(-3.68774 0 0.692972)
(3.61849 0 -0.774602)
(4.85823 0 -0.842359)
(-12.2381 1.46357e-18 2.39034)
(5.73334 -1.23059e-18 -1.35611)
(18.8309 0 -3.32541)
(-21.1828 -2.38068e-17 4.44134)
(-24.0357 1.68648e-18 4.3521)
(19.7446 1.44253e-17 -4.16023)
(24.7034 0 -4.51984)
(-7.52372 0 1.6229)
(-18.1977 2.62516e-18 3.53603)
(-12.4517 0 2.3404)
(-8.25804 -7.71582e-19 1.51877)
(-0.721526 -6.82416e-19 0.0782851)
(1.82879 0 -0.365257)
(-0.109616 0 0.0502492)
(-0.0824736 0 0.00553769)
(-0.0701853 -1.22267e-21 -0.0164752)
(-0.0544637 0 -0.0167315)
(-0.0358056 0 -0.0129611)
(-0.0220088 1.17256e-21 -0.010078)
(-0.015001 1.13497e-21 -0.00801548)
(-0.0141521 0 -0.00610889)
(-0.018472 1.74625e-23 -0.00402064)
(-0.0265398 1.862e-21 -0.00258272)
(-0.0359375 -3.29306e-21 -0.0025725)
(-0.0442774 -1.41466e-21 -0.00353754)
(-0.0507946 1.20334e-24 -0.00422542)
(-0.0563693 -8.92283e-22 -0.00389561)
(-0.0620198 -6.11881e-22 -0.0027981)
(-0.0678272 3.28295e-22 -0.00152488)
(-0.0732866 -5.55731e-23 -0.000321578)
(-0.0781212 5.33126e-22 0.000922781)
(-0.0824549 0 0.00232424)
(-0.0864548 0 0.0038398)
(-0.0901109 -2.1853e-21 0.00537034)
(-0.0933438 -2.68376e-21 0.00688154)
(-0.0961458 0 0.00839287)
(-0.0985502 0 0.00990275)
(-0.100521 -7.87215e-21 0.0113599)
(-0.101926 0 0.0126964)
(-0.102604 1.79404e-20 0.0138678)
(-0.102446 -9.33041e-21 0.0148614)
(-0.101399 0 0.0156732)
(-0.0994344 -9.71242e-21 0.0162873)
(-0.0965121 -9.69425e-21 0.0166753)
(-0.0926133 0 0.0168189)
(-0.0877802 9.28972e-21 0.0167201)
(-0.082155 1.78914e-20 0.016403)
(-0.0759548 7.17412e-24 0.0158984)
(-0.0694536 0 0.0152411)
(-0.0629255 0 0.014461)
(-0.056654 -1.37042e-20 0.0135956)
(-0.0509006 0 0.0126878)
(-0.045949 0 0.011798)
(-0.0420468 0 0.0109872)
(-0.0394222 0 0.0103175)
(-0.0381844 0 0.00983262)
(-0.0383616 0 0.00956386)
(-0.0398373 0 0.00952362)
(-0.042427 1.04801e-20 0.00970555)
(-0.0458498 -8.83164e-21 0.010091)
(-0.0497938 0 0.010632)
(-0.0539436 -5.6425e-21 0.0112894)
(-0.05797 0 0.0119793)
(-0.0616601 0 0.0126685)
(-0.0647605 2.64277e-21 0.0132608)
(-0.0673111 0 0.0137815)
(-0.0691887 1.56911e-21 0.014147)
(-0.0707393 -2.78807e-21 0.0144716)
(-0.0718349 0 0.0146606)
(-0.0730405 -3.45378e-21 0.0149111)
(-0.0739917 0 0.0150598)
(-0.0754069 0 0.0153707)
(-0.0765357 0 0.0155614)
(-0.0783696 -1.78001e-21 0.0159846)
(-0.0797914 -1.11156e-21 0.0162277)
(-0.0823137 3.84461e-24 0.0167878)
(-0.0844805 4.07163e-21 0.0171252)
(-0.08846 -1.46835e-23 0.0179223)
(-0.0922568 0 0.0184758)
(-0.0985661 0 0.0196501)
(-0.104646 1.21748e-20 0.020545)
(-0.113512 -1.24788e-23 0.0221754)
(-0.1218 0 0.0234658)
(-0.132611 0 0.025515)
(-0.142502 5.78654e-21 0.0271695)
(-0.154231 8.28352e-24 0.0294933)
(-0.165303 4.47497e-24 0.0314657)
(-0.176978 0 0.0338489)
(-0.188981 0 0.0360698)
(-0.199624 1.72972e-21 0.0382748)
(-0.212707 -5.97026e-21 0.0407591)
(-0.221223 0 0.0425341)
(-0.235777 0 0.04537)
(-0.241313 0 0.046519)
(-0.257784 0 0.0497951)
(-0.259484 0 0.0501298)
(-0.278219 0 0.0539074)
(-0.275366 0 0.0532668)
(-0.296013 0 0.0574467)
(-0.288578 -1.16179e-19 0.0558345)
(-0.310285 -3.97925e-20 0.0602014)
(-0.29989 -4.75912e-20 0.0580096)
(-0.321537 3.68509e-20 0.0622601)
(-0.309588 -4.74783e-20 0.0597102)
(-0.329529 -4.33259e-20 0.0632711)
(-0.315694 -3.13061e-20 0.0604)
(-0.334368 0 0.0635442)
(-0.305706 0 0.059461)
(-0.319397 0 0.0631481)
(-0.280039 0 0.0555079)
(-0.306199 1.98279e-19 0.0576348)
(-0.278947 0 0.0498875)
(-0.218574 0 0.039089)
(-0.0742681 -4.1891e-19 0.022041)
(-0.849538 0 0.156231)
(0.824443 1.09735e-18 -0.170029)
(-0.470042 2.48897e-20 0.176741)
(-5.6473 0 1.00839)
(6.21028 0 -1.41068)
(6.77696 0 -0.961909)
(-19.1031 1.35686e-18 3.69009)
(10.6871 0 -2.78926)
(27.9487 -1.35762e-18 -4.73655)
(-35.6712 5.68993e-21 7.85356)
(-35.6288 -1.57844e-18 5.89469)
(33.3064 -1.34818e-17 -7.42797)
(37.1288 0 -6.41768)
(-14.0575 -6.5854e-18 3.70734)
(-29.2856 -2.45551e-18 5.68571)
(-19.8043 -2.2981e-18 3.59606)
(-12.8261 0 2.22283)
(-0.665472 6.38093e-19 -0.06947)
(3.08536 0 -0.632691)
(-0.106861 0 0.020473)
(-0.0921088 0 -0.00210156)
(-0.0851824 1.15588e-21 -0.0199211)
(-0.0790447 0 -0.0232796)
(-0.0683092 -1.12234e-21 -0.0200393)
(-0.0562313 2.18675e-21 -0.0154165)
(-0.0463241 0 -0.0109906)
(-0.0405296 -2.01632e-21 -0.00684413)
(-0.0398365 1.91232e-21 -0.00316594)
(-0.0439826 1.72803e-21 -0.00132113)
(-0.0508172 1.55318e-21 -0.00236284)
(-0.0573101 -1.32215e-21 -0.00522539)
(-0.061889 1.09654e-21 -0.00751243)
(-0.0653599 -1.68107e-21 -0.00786863)
(-0.0692839 0 -0.00681901)
(-0.0740819 -6.21506e-22 -0.00549984)
(-0.0790726 0 -0.00434423)
(-0.0836954 0 -0.00309539)
(-0.0880367 0 -0.00150673)
(-0.0923659 -1.55273e-21 0.000350838)
(-0.0966867 1.32527e-23 0.00230296)
(-0.100834 1.47379e-23 0.0043002)
(-0.104733 -2.95653e-21 0.00638428)
(-0.108408 0 0.00854705)
(-0.111809 0 0.0106919)
(-0.114747 0 0.0127058)
(-0.116984 -1.69049e-20 0.0145287)
(-0.118354 3.14339e-23 0.0161556)
(-0.118781 0 0.0175881)
(-0.118215 0 0.0188006)
(-0.116589 0 0.0197485)
(-0.113855 0 0.0204063)
(-0.110037 -1.7553e-20 0.0207793)
(-0.105287 0 0.0208986)
(-0.0998368 1.60787e-20 0.0207942)
(-0.0939763 0 0.0204927)
(-0.0879802 0 0.0200087)
(-0.0821323 1.29569e-20 0.0193692)
(-0.0766891 0 0.0186117)
(-0.0719478 0 0.0178023)
(-0.0681648 -9.59133e-21 0.0170087)
(-0.0655949 1.70844e-20 0.0163036)
(-0.0643568 0 0.0157397)
(-0.0645059 1.32643e-20 0.0153627)
(-0.0659355 0 0.0152023)
(-0.0684963 -1.98131e-20 0.0152718)
(-0.071925 -1.19845e-23 0.0155737)
(-0.0759481 0 0.0160719)
(-0.0802686 0 0.0167421)
(-0.0845778 3.9223e-21 0.0174914)
(-0.0886738 5.0832e-21 0.0182942)
(-0.092295 -5.03853e-21 0.0190255)
(-0.0955063 0 0.0197288)
(-0.0981515 1.40188e-21 0.0202774)
(-0.100642 2.63183e-21 0.0208287)
(-0.102775 3.1888e-21 0.0212279)
(-0.105238 3.23499e-21 0.0217499)
(-0.107514 0 0.0221413)
(-0.110514 0 0.0227834)
(-0.113222 2.84545e-21 0.0232561)
(-0.116938 3.37576e-21 0.0240776)
(-0.120139 1.04838e-21 0.0246357)
(-0.124826 4.68557e-24 0.0256564)
(-0.128971 -1.91655e-21 0.0263266)
(-0.135449 -3.13592e-21 0.0276361)
(-0.141458 0 0.0285212)
(-0.150636 0 0.0302502)
(-0.159169 -1.14732e-20 0.0314739)
(-0.171251 -2.23069e-20 0.0337173)
(-0.182241 0 0.0353745)
(-0.196593 -7.45047e-21 0.0381369)
(-0.209517 -5.47749e-21 0.0402597)
(-0.225112 -3.06703e-21 0.043425)
(-0.239745 -5.12605e-21 0.0460129)
(-0.255542 0 0.049315)
(-0.271761 0 0.0522893)
(-0.286557 -1.62763e-21 0.0554008)
(-0.304667 1.12147e-20 0.0587867)
(-0.317009 -1.40415e-21 0.0613644)
(-0.337644 0 0.0653211)
(-0.34634 0 0.0671009)
(-0.370195 0 0.0717864)
(-0.373964 0 0.0724967)
(-0.40156 0 0.0780101)
(-0.399164 0 0.0773718)
(-0.430052 -4.47396e-20 0.0835782)
(-0.4211 5.59684e-24 0.0815253)
(-0.454174 3.7408e-20 0.0881403)
(-0.440491 0 0.0851494)
(-0.474153 3.47101e-20 0.0916754)
(-0.457252 2.22962e-20 0.0880975)
(-0.488865 0 0.0936815)
(-0.467987 -2.93726e-20 0.0895098)
(-0.498071 -7.52876e-20 0.0943626)
(-0.458596 0 0.0884666)
(-0.486104 0 0.0946396)
(-0.433597 0 0.0857648)
(-0.477866 1.85151e-19 0.0907286)
(-0.438637 0 0.07817)
(-0.358881 0 0.0622687)
(-0.198393 -3.93113e-19 0.052387)
(-1.21257 -2.89711e-19 0.216023)
(1.04232 0 -0.219976)
(-0.942827 0 0.349434)
(-7.22694 0 1.22711)
(8.7881 0 -2.0915)
(7.81128 0 -0.826914)
(-24.9046 -9.93793e-21 4.78187)
(16.1378 0 -4.49148)
(34.5176 1.27039e-18 -5.30297)
(-49.8739 1.04146e-17 11.4524)
(-43.8165 0 6.5421)
(46.5291 2.44602e-21 -10.8814)
(46.3314 0 -7.47718)
(-21.5323 1.05952e-20 6.12633)
(-39.3067 0 7.65592)
(-26.364 2.14862e-18 4.65515)
(-16.6632 0 2.73306)
(-0.248503 5.92313e-19 -0.337318)
(4.33132 0 -0.906855)
(-0.105663 0 0.00827935)
(-0.0966934 0 -0.00379911)
(-0.0934787 0 -0.0180995)
(-0.0947267 0 -0.0241273)
(-0.093574 1.05945e-21 -0.0234655)
(-0.0887968 -5.31341e-25 -0.0195077)
(-0.0822438 0 -0.0141297)
(-0.0761946 1.9032e-21 -0.00811648)
(-0.0727945 0 -0.00238284)
(-0.0735151 -3.23379e-21 0.000846753)
(-0.0777442 0 -0.000350121)
(-0.0826191 1.24823e-21 -0.00477846)
(-0.085534 0 -0.00876119)
(-0.0866364 1.58723e-21 -0.00984907)
(-0.0879995 -5.40451e-22 -0.00867206)
(-0.0908147 5.82404e-22 -0.00713396)
(-0.0944427 -6.10736e-23 -0.00605818)
(-0.0978906 4.57905e-22 -0.00499975)
(-0.101074 0 -0.00344489)
(-0.104455 1.4662e-21 -0.00144505)
(-0.108191 1.93929e-21 0.000715312)
(-0.112053 4.7558e-21 0.0029481)
(-0.115849 2.79175e-21 0.00533411)
(-0.119586 0 0.00788101)
(-0.123253 0 0.0104497)
(-0.126648 0 0.0128751)
(-0.129455 7.96524e-21 0.0150823)
(-0.131438 8.30194e-21 0.0170837)
(-0.132494 0 0.018897)
(-0.132573 0 0.0204927)
(-0.131596 -8.59314e-21 0.0218122)
(-0.129495 0 0.0228264)
(-0.126276 1.85608e-23 0.02355)
(-0.122093 1.59059e-20 0.0240262)
(-0.117196 -1.51388e-20 0.0242854)
(-0.111892 0 0.0243436)
(-0.106459 0 0.0241962)
(-0.101178 -1.2229e-20 0.0238556)
(-0.0962937 0 0.0233504)
(-0.0921093 0 0.0227475)
(-0.0888764 9.05097e-21 0.0221152)
(-0.0868635 -1.61209e-20 0.0215289)
(-0.0861813 0 0.021041)
(-0.0868985 -1.25147e-20 0.0207039)
(-0.0888991 0 0.0205587)
(-0.0920549 9.35033e-21 0.0206334)
(-0.0961012 7.88128e-21 0.0209504)
(-0.100792 0 0.0214842)
(-0.10583 5.0727e-21 0.0222291)
(-0.110924 -3.69896e-21 0.0230847)
(-0.11587 -9.62587e-21 0.0240418)
(-0.120406 2.39785e-21 0.0249499)
(-0.124615 -3.66131e-22 0.0258813)
(-0.128321 -4.51578e-23 0.0266649)
(-0.131994 0 0.0275089)
(-0.135376 -3.00556e-21 0.0281868)
(-0.139268 -3.04879e-21 0.0290574)
(-0.143018 2.65099e-21 0.0297572)
(-0.147725 -2.03609e-21 0.0307973)
(-0.152124 -2.6808e-21 0.0315973)
(-0.15782 -1.59835e-21 0.0328682)
(-0.162909 1.01417e-21 0.0337717)
(-0.169873 -1.14072e-21 0.0353046)
(-0.176124 0 0.0363407)
(-0.185242 0 0.0382284)
(-0.193615 -4.02556e-21 0.0394821)
(-0.205838 0 0.0418391)
(-0.217 0 0.0434163)
(-0.232519 1.04859e-20 0.0463369)
(-0.246413 0 0.0483569)
(-0.264579 7.00972e-21 0.0518799)
(-0.280765 1.0317e-20 0.0544385)
(-0.300559 0 0.0584879)
(-0.318981 2.41436e-21 0.0616467)
(-0.33928 0 0.0659244)
(-0.359942 0 0.0696201)
(-0.379336 1.48628e-21 0.0737289)
(-0.40271 -5.26101e-21 0.0780114)
(-0.419424 -8.66524e-24 0.0815205)
(-0.446423 0 0.0866291)
(-0.458916 0 0.0891936)
(-0.49052 0 0.0953584)
(-0.49706 -1.75581e-20 0.0966058)
(-0.534015 1.88128e-20 0.103969)
(-0.532787 0 0.10348)
(-0.574668 8.39555e-20 0.111894)
(-0.564845 5.12109e-20 0.109523)
(-0.610459 -7.02275e-20 0.118661)
(-0.593904 -4.19819e-20 0.114944)
(-0.64128 -6.5181e-20 0.124146)
(-0.61949 0 0.119453)
(-0.665079 0 0.127732)
(-0.636984 2.75417e-20 0.12187)
(-0.681423 7.05835e-20 0.129058)
(-0.631003 -8.56746e-20 0.121396)
(-0.675926 0 0.130379)
(-0.61019 0 0.120081)
(-0.675645 -1.73475e-19 0.129445)
(-0.623321 -1.51468e-19 0.112225)
(-0.531831 0 0.0915391)
(-0.373526 3.6816e-19 0.097471)
(-1.58602 2.71283e-19 0.271894)
(1.17744 0 -0.253523)
(-1.52877 0 0.579376)
(-8.4466 0 1.32516)
(11.2041 0 -2.78248)
(8.09027 0 -0.412131)
(-29.6123 -1.17902e-18 5.58542)
(21.6971 0 -6.39342)
(38.5882 0 -5.14227)
(-63.2416 0 15.0564)
(-48.7711 1.25937e-18 6.14858)
(58.835 5.8913e-18 -14.3721)
(52.2047 0 -7.64262)
(-29.6623 5.74775e-18 8.58609)
(-48.031 0 9.33548)
(-32.0965 2.02787e-18 5.46051)
(-19.7558 0 2.99952)
(0.481553 -5.53552e-19 -0.732431)
(5.52918 0 -1.18452)
(-0.104908 -1.02488e-21 0.00212034)
(-0.100102 -1.06221e-21 -0.00501819)
(-0.0978708 1.06265e-21 -0.0153593)
(-0.101445 1.03847e-21 -0.0218142)
(-0.105812 0 -0.023289)
(-0.107581 -9.70915e-22 -0.0210688)
(-0.106522 0 -0.0164613)
(-0.103835 1.7454e-21 -0.0102506)
(-0.101216 1.61864e-21 -0.00339817)
(-0.100798 2.98545e-21 0.00139521)
(-0.103748 -1.31327e-21 0.000963886)
(-0.108423 1.13254e-21 -0.00433959)
(-0.111563 0 -0.00999149)
(-0.111983 0 -0.0119434)
(-0.111689 5.09543e-22 -0.010411)
(-0.112899 -1.07043e-23 -0.00821089)
(-0.115498 1.56573e-23 -0.00695548)
(-0.118061 1.10197e-23 -0.00608417)
(-0.120082 0 -0.00461568)
(-0.122197 0 -0.00246185)
(-0.124919 0 -6.96615e-05)
(-0.128067 -4.46915e-21 0.00236292)
(-0.131278 -2.61249e-21 0.00496444)
(-0.134498 0 0.00780247)
(-0.137807 0 0.0107098)
(-0.141066 -7.02977e-21 0.0134533)
(-0.143906 0 0.0159304)
(-0.14599 0 0.0181793)
(-0.147167 0 0.0202495)
(-0.147403 0 0.0221165)
(-0.146635 2.79218e-23 0.0237076)
(-0.144781 0 0.0249889)
(-0.141819 2.23514e-23 0.0259871)
(-0.137896 -1.49937e-20 0.026762)
(-0.133273 3.21087e-23 0.027347)
(-0.128286 0 0.0277469)
(-0.123223 0 0.027935)
(-0.118371 0 0.0279068)
(-0.113961 0 0.0276799)
(-0.110298 0 0.0273214)
(-0.107624 0 0.0268976)
(-0.10622 0 0.0264833)
(-0.106182 1.34266e-20 0.0261273)
(-0.107591 1.17879e-20 0.0258847)
(-0.110313 0 0.025806)
(-0.114237 8.81208e-21 0.0259321)
(-0.119088 0 0.0263049)
(-0.124643 0 0.0269082)
(-0.130598 -9.56505e-21 0.0277566)
(-0.136675 0 0.0287414)
(-0.142664 4.55106e-21 0.0298752)
(-0.148301 0 0.0309805)
(-0.153684 7.35782e-22 0.0321674)
(-0.158617 -4.70352e-23 0.0332156)
(-0.163631 0 0.034393)
(-0.168407 0 0.0353893)
(-0.173862 0 0.0366574)
(-0.179211 -4.97262e-21 0.0377036)
(-0.185744 3.82458e-21 0.0391859)
(-0.191948 2.53097e-21 0.0403384)
(-0.199749 1.52654e-21 0.0420943)
(-0.206847 -1.92011e-21 0.0433579)
(-0.216236 -1.08625e-21 0.0454392)
(-0.224734 0 0.0468556)
(-0.236667 0 0.0493682)
(-0.24756 1.64397e-23 0.0510089)
(-0.26303 0 0.0540539)
(-0.27699 0 0.0560055)
(-0.29619 9.80354e-21 0.0596759)
(-0.313181 0 0.0620797)
(-0.335468 0 0.066449)
(-0.355137 -9.71354e-21 0.0694638)
(-0.379511 2.74426e-21 0.0744982)
(-0.401963 0 0.0782475)
(-0.427226 0 0.0836182)
(-0.452596 0 0.0880612)
(-0.477151 -1.39578e-21 0.0933078)
(-0.506097 0 0.0985246)
(-0.527869 2.50157e-21 0.103131)
(-0.561605 1.01486e-21 0.109445)
(-0.578703 0 0.112974)
(-0.618524 0 0.120688)
(-0.628725 1.64763e-20 0.122651)
(-0.675651 -3.49928e-23 0.131953)
(-0.676514 2.22161e-20 0.131777)
(-0.730252 -3.93563e-20 0.142531)
(-0.720433 4.79847e-20 0.139983)
(-0.779855 3.29362e-20 0.151858)
(-0.761079 3.93622e-20 0.147508)
(-0.82396 -5.40572e-23 0.15967)
(-0.797536 0 0.153936)
(-0.859588 -3.58394e-20 0.165268)
(-0.824212 0 0.157707)
(-0.886123 0 0.167726)
(-0.824681 8.02613e-20 0.158454)
(-0.890775 0 0.170776)
(-0.811436 0 0.158819)
(-0.901803 0 0.173249)
(-0.834931 1.41821e-19 0.150703)
(-0.740673 0 0.12736)
(-0.598434 3.45196e-19 0.154679)
(-1.96812 0 0.324792)
(1.22162 0 -0.267287)
(-2.19576 0 0.842123)
(-9.33545 0 1.31378)
(13.322 0 -3.44939)
(7.74757 3.47051e-18 0.235457)
(-33.2288 -1.078e-18 6.1157)
(26.9645 9.18166e-19 -8.39848)
(40.3317 0 -4.24925)
(-75.19 0 18.5761)
(-50.8509 -2.30783e-18 4.82671)
(69.6983 0 -17.784)
(54.7647 1.99247e-18 -6.87437)
(-37.9532 0 11.5575)
(-55.2917 -2.03316e-18 10.7111)
(-36.9828 -1.895e-18 6.02554)
(-22.1038 0 3.03467)
(1.47354 -5.1417e-19 -1.23919)
(6.64525 0 -1.44953)
(-0.104075 9.65161e-22 -0.00161337)
(-0.10224 1.99951e-21 -0.00642572)
(-0.100096 -1.00096e-21 -0.013536)
(-0.103202 -2.23142e-24 -0.0191332)
(-0.109004 9.41445e-22 -0.0215611)
(-0.11387 0 -0.0207985)
(-0.116575 0 -0.0175987)
(-0.11742 -1.64358e-21 -0.0125214)
(-0.117111 -3.00809e-21 -0.00599928)
(-0.117173 -4.19771e-23 -0.000335884)
(-0.119706 1.23653e-21 0.0004825)
(-0.124895 -1.06635e-21 -0.00477905)
(-0.129894 8.51054e-22 -0.0118084)
(-0.132028 0 -0.0149185)
(-0.13215 0 -0.0130988)
(-0.133082 -2.46265e-22 -0.00982673)
(-0.13572 5.27105e-23 -0.00797599)
(-0.138551 -8.54042e-22 -0.00719464)
(-0.140388 0 -0.00585671)
(-0.141783 0 -0.00348843)
(-0.143741 0 -0.000717043)
(-0.146355 8.83407e-26 0.00201226)
(-0.149119 4.91584e-21 0.00484239)
(-0.151817 -2.77589e-21 0.00796506)
(-0.154622 -6.11459e-21 0.0112265)
(-0.157574 1.3213e-20 0.0143046)
(-0.160317 -6.98389e-21 0.0170363)
(-0.162392 -7.28007e-21 0.0194849)
(-0.163558 -7.47766e-21 0.0217561)
(-0.163796 0 0.0238476)
(-0.16309 7.60108e-21 0.0256711)
(-0.161364 -7.47109e-21 0.0271816)
(-0.158555 7.30956e-21 0.0284158)
(-0.154776 1.40326e-20 0.0294558)
(-0.150287 2.67665e-20 0.0303432)
(-0.145465 0 0.0310742)
(-0.140621 0 0.0315977)
(-0.136062 1.08008e-20 0.0318895)
(-0.132003 0 0.0319548)
(-0.128752 -8.92035e-21 0.0318607)
(-0.126536 -8.00566e-21 0.0316714)
(-0.12565 0 0.0314599)
(-0.126178 -2.52532e-20 0.0312687)
(-0.128215 -1.10932e-20 0.0311534)
(-0.131606 0 0.0311718)
(-0.136258 -8.29183e-21 0.0313756)
(-0.141881 -6.98979e-21 0.031826)
(-0.148278 0 0.0325137)
(-0.155134 9.01345e-21 0.0334756)
(-0.16219 -3.31566e-21 0.0345917)
(-0.169232 -4.34658e-21 0.0359026)
(-0.175994 0 0.0372009)
(-0.182589 4.6769e-23 0.0386453)
(-0.1888 -2.12287e-21 0.0399593)
(-0.195216 0 0.0414857)
(-0.201454 0 0.0428141)
(-0.208553 2.61896e-21 0.0445105)
(-0.215578 2.32931e-21 0.0459244)
(-0.224034 -3.57585e-21 0.0478879)
(-0.232134 -2.37916e-21 0.0494125)
(-0.242163 -1.43484e-21 0.0516956)
(-0.251383 9.07852e-22 0.0533352)
(-0.263356 2.04985e-21 0.056014)
(-0.274233 0 0.0578263)
(-0.289176 0 0.0610251)
(-0.302732 7.06902e-21 0.0630704)
(-0.32168 0 0.0668799)
(-0.338593 0 0.0692244)
(-0.361754 -9.20761e-21 0.0737374)
(-0.382018 0 0.0765421)
(-0.408776 6.17901e-21 0.0818645)
(-0.432132 -2.72052e-24 0.0853478)
(-0.46152 -2.57631e-21 0.091486)
(-0.488229 0 0.0958298)
(-0.518984 0 0.102423)
(-0.549329 0 0.107618)
(-0.579691 -1.28775e-21 0.114152)
(-0.614534 0 0.120322)
(-0.642154 -1.17686e-21 0.126203)
(-0.683033 -1.88222e-21 0.133768)
(-0.70566 0 0.138458)
(-0.754214 0 0.147795)
(-0.769106 0 0.150673)
(-0.826672 -3.01054e-23 0.162021)
(-0.830716 -2.0827e-20 0.162348)
(-0.897242 -3.68159e-20 0.175605)
(-0.888501 -4.49734e-20 0.173055)
(-0.963057 3.09031e-20 0.187913)
(-0.942937 0 0.183071)
(-1.02316 2.87003e-20 0.198524)
(-0.992632 0 0.191824)
(-1.07373 3.35697e-20 0.206382)
(-1.03115 0 0.197718)
(-1.11384 0 0.210916)
(-1.04148 0 0.199999)
(-1.13262 1.21508e-19 0.216328)
(-1.03911 4.71359e-20 0.202681)
(-1.15853 0 0.222822)
(-1.07543 -1.32486e-19 0.194162)
(-0.98876 -9.48734e-20 0.170676)
(-0.87102 -3.22992e-19 0.224877)
(-2.3592 -2.35602e-19 0.374416)
(1.17099 0 -0.259361)
(-2.90719 0 1.13856)
(-9.93932 0 1.19488)
(15.0321 0 -4.06166)
(6.92452 -3.24526e-18 1.08859)
(-35.8126 1.63525e-20 6.35906)
(31.5796 -1.71716e-18 -10.4055)
(39.986 0 -2.64917)
(-85.194 0 21.815)
(-50.6215 1.05658e-18 2.65844)
(78.7098 0 -20.9547)
(54.1156 -1.8619e-18 -5.16663)
(-46.0643 0 14.5722)
(-61.0107 3.80599e-18 11.707)
(-41.0289 0 6.36695)
(-23.7376 0 2.83528)
(2.67142 4.8033e-19 -1.84523)
(7.64711 0 -1.69746)
(-0.102828 0 -0.00362468)
(-0.103039 -9.3986e-22 -0.00743931)
(-0.101116 0 -0.012664)
(-0.103217 -9.18185e-22 -0.0172806)
(-0.108455 -1.75789e-21 -0.0198879)
(-0.113725 0 -0.0200128)
(-0.11772 7.88036e-22 -0.0181063)
(-0.120536 0 -0.0146272)
(-0.122211 4.60334e-23 -0.00946684)
(-0.123206 -2.48659e-21 -0.00393271)
(-0.125363 0 -0.00189934)
(-0.13041 0 -0.00616196)
(-0.13708 -8.0046e-22 -0.0137718)
(-0.142096 0 -0.018167)
(-0.144457 0 -0.0165113)
(-0.146485 0 -0.0121385)
(-0.15011 -1.24184e-23 -0.00933541)
(-0.154361 4.11175e-22 -0.00852101)
(-0.157399 8.51946e-22 -0.0074656)
(-0.159207 0 -0.00496289)
(-0.161105 0 -0.00169702)
(-0.163713 1.97661e-21 0.00147002)
(-0.166542 -2.30981e-21 0.00457012)
(-0.169121 2.61079e-21 0.00797217)
(-0.171613 5.7509e-21 0.0116219)
(-0.174316 -1.23807e-20 0.015103)
(-0.177033 2.72932e-23 0.0181327)
(-0.179216 6.84687e-21 0.0207757)
(-0.180473 7.0326e-21 0.0232214)
(-0.180769 0 0.0255208)
(-0.180161 0 0.0275736)
(-0.178617 7.02604e-21 0.0293091)
(-0.17603 0 0.0307663)
(-0.172448 -1.31961e-20 0.0320543)
(-0.1681 -1.25657e-20 0.033233)
(-0.163401 1.17863e-20 0.0342957)
(-0.15871 0 0.0351658)
(-0.154371 -1.01558e-20 0.0357951)
(-0.150592 -9.24042e-21 0.036173)
(-0.147678 2.55167e-23 0.0363675)
(-0.14584 1.50318e-20 0.0364415)
(-0.145394 0 0.0364662)
(-0.146412 1.18615e-20 0.0364761)
(-0.149007 0 0.0365245)
(-0.153003 0 0.0366752)
(-0.158325 0 0.0369881)
(-0.164663 8.38268e-24 0.0375438)
(-0.171847 0 0.0383361)
(-0.179553 -4.23838e-21 0.0394273)
(-0.187547 6.2413e-21 0.0406814)
(-0.195611 4.08454e-21 0.0421742)
(-0.203483 0 0.0436617)
(-0.211293 -3.89514e-22 0.0453653)
(-0.218792 1.897e-21 0.046941)
(-0.226641 0 0.0488263)
(-0.23437 0 0.0504898)
(-0.243167 -2.46012e-21 0.0526376)
(-0.251911 -2.13955e-21 0.0544281)
(-0.26237 1.67346e-21 0.0569067)
(-0.272426 2.21619e-21 0.0588136)
(-0.2848 0 0.0616667)
(-0.296223 0 0.0636912)
(-0.310941 9.30838e-24 0.067021)
(-0.324298 1.4981e-21 0.0692377)
(-0.342455 0 0.0731903)
(-0.358787 -3.31147e-21 0.0756483)
(-0.381464 0 0.0803071)
(-0.401455 0 0.0830524)
(-0.42889 0 0.0885123)
(-0.452572 0 0.0917252)
(-0.484196 -1.06889e-23 0.0981248)
(-0.511411 1.90146e-24 0.102081)
(-0.546302 2.43166e-21 0.109464)
(-0.577467 0 0.1144)
(-0.614311 8.60886e-22 0.12237)
(-0.649878 0 0.128317)
(-0.686778 1.20747e-21 0.136314)
(-0.727834 -4.237e-21 0.143453)
(-0.762191 -1.11082e-21 0.150811)
(-0.810627 8.72009e-22 0.159671)
(-0.83982 0 0.165741)
(-0.897648 7.53226e-21 0.176778)
(-0.91839 0 0.180796)
(-0.987315 -1.54483e-20 0.194306)
(-0.995785 -1.94389e-20 0.195355)
(-1.0761 3.44894e-20 0.211288)
(-1.0697 0 0.208947)
(-1.1608 -5.79099e-20 0.227037)
(-1.14044 0 0.22189)
(-1.23993 2.69693e-20 0.240955)
(-1.20609 0 0.233449)
(-1.30886 3.1452e-20 0.251726)
(-1.25957 0 0.241924)
(-1.36645 5.75189e-20 0.258859)
(-1.28348 -7.0202e-20 0.246562)
(-1.40369 -1.13707e-19 0.267456)
(-1.2955 -4.4105e-20 0.252209)
(-1.44851 0 0.278657)
(-1.3476 2.4765e-19 0.243016)
(-1.27995 1.77241e-19 0.222465)
(-1.19013 0 0.306889)
(-2.76179 2.20345e-19 0.42209)
(1.024 0 -0.228725)
(-3.63414 0 1.45319)
(-10.3136 6.71193e-19 0.986228)
(16.2586 0 -4.59624)
(5.75527 0 2.111)
(-37.4659 9.26882e-19 6.33446)
(35.2605 1.60797e-18 -12.3324)
(37.843 1.0507e-18 -0.406733)
(-92.8171 0 24.672)
(-48.7734 0 -0.20756)
(85.5758 0 -23.7811)
(50.4757 0 -2.55702)
(-53.5639 -4.67068e-18 17.6498)
(-65.1768 -1.78082e-18 12.4767)
(-44.2847 0 6.35539)
(-24.7141 0 2.41083)
(4.01888 0 -2.536)
(8.51 0 -1.91659)
(-0.101386 8.33587e-22 -0.00462653)
(-0.103005 0 -0.00806925)
(-0.101382 8.54975e-22 -0.0123729)
(-0.102725 0 -0.016281)
(-0.107033 8.1973e-22 -0.0188054)
(-0.111688 0 -0.0194752)
(-0.115582 -7.40654e-22 -0.0185984)
(-0.11896 1.33047e-21 -0.0165861)
(-0.121775 2.48588e-21 -0.0131422)
(-0.123653 5.07741e-23 -0.00855176)
(-0.125476 0 -0.00576887)
(-0.129512 0 -0.00840865)
(-0.136395 0 -0.0154496)
(-0.143599 0 -0.0207199)
(-0.148643 0 -0.0197244)