/*--------------------------------*- C++ -*----------------------------------*\
| =========                 |                                                 |
| \\      /  F ield         | OpenFOAM: The Open Source CFD Toolbox           |
|  \\    /   O peration     | Version:  2412                                  |
|   \\  /    A nd           | Website:  www.openfoam.com                      |
|    \\/     M anipulation  |                                                 |
\*---------------------------------------------------------------------------*/
FoamFile
{
    version     2.0;
    format      ascii;
    arch        "LSB;label=32;scalar=64";
    class       volScalarField;
    location    "0.67";
    object      p;
}
// * * * * * * * * * * * * * * * * * * * * * * * * * * * * * * * * * * * * * //

dimensions      [0 2 -2 0 0 0 0];

internalField   nonuniform List<scalar> 
12600
(
0.206376
-154.492
-204.616
-201.469
-189.096
-177.584
-167.487
-158.454
-150.268
-142.767
-135.825
-129.348
-123.262
-117.509
-112.045
-106.832
-101.838
-97.0393
-92.4127
-87.9401
-83.6056
-79.3954
-75.2974
-71.3012
-67.3974
-63.5779
-59.8352
-56.1627
-52.5546
-49.0054
-45.5102
-42.0646
-38.6645
-35.3062
-31.9861
-28.701
-25.448
-22.2242
-19.027
-15.854
-12.7028
-9.57128
-6.45727
-3.35888
-0.274122
2.79865
5.86132
8.9153
11.9624
15.0038
18.0413
21.0757
24.109
27.1417
30.1757
33.2112
36.2505
39.293
42.3413
45.3945
48.4554
51.5222
54.5985
57.6813
60.7749
63.8752
66.9874
70.1059
73.2368
76.373
79.5215
82.6737
85.8372
89.0019
92.1762
95.3482
98.5274
101.699
104.875
108.038
111.201
114.343
117.482
120.59
123.693
126.752
129.805
132.801
135.793
138.711
141.633
144.463
147.307
150.043
152.808
155.45
158.143
160.706
163.336
165.871
168.359
171.067
173.6
175.694
179.628
182.557
179.181
189.116
194.498
180.232
197.276
224.016
212.743
197.634
214.404
246.627
261.248
270.64
272.165
268.498
-23.9926
-123.667
-171.144
-180.836
-177.691
-171.013
-163.321
-155.603
-148.221
-141.249
-134.676
-128.464
-122.575
-116.973
-111.625
-106.502
-101.581
-96.8391
-92.2589
-87.8239
-83.5201
-79.3351
-75.2579
-71.2788
-67.3892
-63.5815
-59.8485
-56.1841
-52.5827
-49.039
-45.5483
-42.1064
-38.7093
-35.3534
-32.0351
-28.7515
-25.4996
-22.2766
-19.0799
-15.9072
-12.7562
-9.62459
-6.5104
-3.41171
-0.326571
2.74667
5.80987
8.86443
11.9122
14.9542
17.9924
21.0276
24.0616
27.095
30.1298
33.166
36.206
39.2493
42.2984
45.3523
48.414
51.4815
54.5585
57.642
60.7363
63.8374
66.9502
70.0695
73.201
76.3379
79.487
82.6399
85.8041
88.9694
92.1444
95.317
98.4968
101.67
104.846
108.01
111.173
114.316
117.456
120.564
123.667
126.727
129.781
132.777
135.77
138.689
141.611
144.442
147.287
150.023
152.789
155.431
158.125
160.689
163.319
165.855
168.343
171.05
173.586
175.676
179.604
182.563
179.171
189.06
194.531
180.25
197.132
223.945
212.835
197.662
214.268
246.474
261.163
270.599
272.166
268.508
-40.8594
-102.307
-145.119
-162.627
-166.01
-163.439
-158.352
-152.254
-145.87
-139.539
-133.397
-127.488
-121.82
-116.382
-111.16
-106.134
-101.289
-96.6081
-92.0764
-87.6807
-83.4088
-79.2498
-75.194
-71.2326
-67.3576
-63.5619
-59.8389
-56.1829
-52.5883
-49.0503
-45.5644
-42.1263
-38.7324
-35.379
-32.0629
-28.7809
-25.5303
-22.3083
-19.1124
-15.9402
-12.7894
-9.658
-6.54384
-3.44507
-0.359756
2.71374
5.77726
8.83219
11.8803
14.9229
17.9615
20.9972
24.0318
27.0657
30.101
33.1378
36.1784
39.2222
42.2719
45.3263
48.3886
51.4567
54.5342
57.6182
60.713
63.8146
66.9279
70.0477
73.1797
76.3172
79.4668
82.6201
85.7847
88.9505
92.126
95.2991
98.4793
101.652
104.83
107.993
111.158
114.301
117.441
120.55
123.653
126.714
129.768
132.765
135.758
138.677
141.6
144.431
147.276
150.013
152.78
155.422
158.116
160.68
163.311
165.847
168.334
171.042
173.58
175.667
179.592
182.567
179.161
189.031
194.551
180.259
197.06
223.909
212.887
197.678
214.203
246.397
261.119
270.578
272.168
268.512
-48.8341
-88.6347
-124.074
-144.628
-152.887
-154.236
-151.983
-147.82
-142.723
-137.251
-131.696
-126.198
-120.825
-115.605
-110.546
-105.647
-100.901
-96.2977
-91.8285
-87.4831
-83.2522
-79.1268
-75.0987
-71.1601
-67.3041
-63.5243
-59.8145
-56.1695
-52.5842
-49.0539
-45.5745
-42.1419
-38.7525
-35.4028
-32.0898
-28.8104
-25.5619
-22.3416
-19.147
-15.9759
-12.8259
-9.69513
-6.58138
-3.48288
-0.397697
2.67578
5.73938
8.79447
11.8429
14.8857
17.9247
20.9607
23.9957
27.03
30.0658
33.1031
36.1441
39.1885
42.2386
45.2936
48.3564
51.425
54.503
57.5876
60.6829
63.785
66.8988
70.0191
73.1516
76.2896
79.4397
82.5935
85.7587
88.925
92.1009
95.2745
98.4553
101.629
104.807
107.971
111.136
114.279
117.42
120.53
123.633
126.694
129.749
132.746
135.74
138.66
141.583
144.415
147.26
149.998
152.765
155.407
158.102
160.666
163.297
165.834
168.321
171.028
173.569
175.651
179.574
182.572
179.148
188.99
194.581
180.262
196.94
223.868
212.964
197.686
214.075
246.278
261.057
270.549
272.172
268.52
-53.9411
-80.4413
-107.368
-127.062
-138.208
-143.007
-143.687
-141.778
-138.32
-134.01
-129.276
-124.365
-119.417
-114.51
-109.686
-104.965
-100.356
-95.8616
-91.4782
-87.2017
-83.0264
-78.9464
-74.9555
-71.0476
-67.2171
-63.4584
-59.7663
-56.1361
-52.5632
-49.0433
-45.5726
-42.1474
-38.7641
-35.4197
-32.111
-28.8352
-25.5896
-22.3718
-19.1792
-16.0097
-12.861
-9.73122
-6.61824
-3.52029
-0.43548
2.63777
5.70128
8.75639
11.8049
14.8479
17.8871
20.9235
23.9588
26.9936
30.0299
33.0676
36.1091
39.154
42.2047
45.2602
48.3235
51.3926
54.4712
57.5564
60.6523
63.7549
66.8693
69.9901
73.1232
76.2617
79.4124
82.5668
85.7325
88.8993
92.0758
95.25
98.4313
101.605
104.784
107.949
111.114
114.258
117.399
120.509
123.614
126.675
129.731
132.729
135.723
138.643
141.567
144.399
147.245
149.983
152.75
155.394
158.089
160.654
163.284
165.822
168.309
171.016
173.559
175.637
179.558
182.578
179.132
188.951
194.613
180.258
196.826
223.832
213.04
197.686
213.965
246.167
260.999
270.522
272.176
268.527
-57.2818
-75.4424
-95.0656
-111.962
-123.826
-130.778
-133.862
-134.14
-132.492
-129.588
-125.91
-121.784
-117.422
-112.954
-108.462
-103.995
-99.5828
-95.2414
-90.9789
-86.7987
-82.7009
-78.6836
-74.7439
-70.8781
-67.0822
-63.3523
-59.6842
-56.0741
-52.5179
-49.0122
-45.5534
-42.1381
-38.7633
-35.4259
-32.1232
-28.8524
-25.611
-22.3967
-19.207
-16.0399
-12.8933
-9.76506
-6.65336
-3.55642
-0.47238
2.6003
5.66341
8.71828
11.7667
14.8096
17.849
20.8855
23.9211
26.9562
29.9927
33.0309
36.0728
39.1181
42.1693
45.2253
48.2891
51.3587
54.4378
57.5235
60.62
63.7232
66.8381
69.9595
73.0931
76.2321
79.3834
82.5383
85.7045
88.8719
92.049
95.2237
98.4056
101.58
104.759
107.925
111.09
114.235
117.377
120.488
123.593
126.655
129.711
132.709
135.704
138.625
141.549
144.382
147.229
149.967
152.735
155.379
158.074
160.639
163.27
165.809
168.295
171.003
173.547
175.62
179.541
182.585
179.112
188.91
194.65
180.245
196.694
223.802
213.126
197.673
213.821
246.044
260.938
270.496
272.183
268.536
-58.9537
-71.981
-86.3222
-100.034
-111.137
-118.869
-123.45
-125.442
-125.443
-123.981
-121.491
-118.309
-114.685
-110.79
-106.744
-102.624
-98.484
-94.3569
-90.2644
-86.2199
-82.231
-78.3019
-74.4338
-70.6267
-66.8792
-63.1892
-59.5543
-55.9718
-52.4388
-48.9524
-45.5099
-42.1084
-38.7451
-35.4176
-32.1231
-28.8593
-25.6238
-22.4144
-19.2289
-16.0653
-12.9215
-9.79569
-6.68596
-3.59064
-0.507886
2.56377
5.6261
8.68038
11.7284
14.7711
17.8103
20.8468
23.8824
26.9177
29.9545
32.9929
36.0351
39.0808
42.1324
45.1888
48.2531
51.3232
54.4028
57.489
60.586
63.6897
66.8052
69.9271
73.0613
76.2009
79.3527
82.5082
85.675
88.843
92.0207
95.196
98.3784
101.554
104.733
107.899
111.066
114.211
117.353
120.465
123.571
126.633
129.69
132.689
135.684
138.606
141.531
144.364
147.211
149.95
152.718
155.363
158.059
160.624
163.255
165.795
168.28
170.988
173.535
175.602
179.524
182.592
179.088
188.868
194.693
180.22
196.549
223.78
213.218
197.645
213.667
245.913
260.876
270.469
272.191
268.544
-59.4624
-69.2406
-79.9752
-90.8396
-100.507
-108.073
-113.315
-116.411
-117.681
-117.479
-116.136
-113.946
-111.148
-107.93
-104.43
-100.751
-96.9644
-93.1214
-89.2579
-85.3984
-81.5596
-77.7526
-73.9844
-70.2592
-66.5791
-62.9448
-59.3562
-55.8122
-52.3114
-48.852
-45.4322
-42.0497
-38.7026
-35.3886
-32.1056
-28.8515
-25.6242
-22.4218
-19.2421
-16.0834
-12.9438
-9.8215
-6.71468
-3.62177
-0.541003
2.52904
5.59006
8.64331
11.6905
14.7326
17.7714
20.8076
23.8431
26.8783
29.9152
32.9537
35.9962
39.0421
42.0941
45.1509
48.2155
51.2861
54.3662
57.4529
60.5503
63.6546
66.7706
69.8931
73.0278
76.168
79.3204
82.4765
85.6439
88.8125
91.9908
95.1666
98.3497
101.526
104.706
107.872
111.039
114.186
117.328
120.441
123.547
126.61
129.668
132.667
135.663
138.585
141.511
144.344
147.193
149.932
152.701
155.346
158.042
160.608
163.24
165.78
168.264
170.973
173.522
175.581
179.507
182.601
179.058
188.825
194.742
180.182
196.386
223.767
213.318
197.6
213.487
245.773
260.81
270.442
272.201
268.554
-59.2541
-66.8313
-75.0792
-83.6514
-91.7587
-98.6582
-103.968
-107.625
-109.741
-110.507
-110.144
-108.873
-106.898
-104.393
-101.499
-98.3269
-94.962
-91.4679
-87.8924
-84.2704
-80.6275
-76.9824
-73.348
-69.7336
-66.1456
-62.5879
-59.0631
-55.5724
-52.1163
-48.6944
-45.306
-41.9501
-38.6254
-35.3303
-32.0633
-28.8228
-25.607
-22.4143
-19.2429
-16.0913
-12.9575
-9.8402
-6.73758
-3.64818
-0.570355
2.49724
5.55625
8.60785
11.6537
14.6948
17.7328
20.7684
23.8034
26.8383
29.875
32.9136
35.9561
39.0022
42.0543
45.1114
48.1764
51.2474
54.3279
57.415
60.5129
63.6177
66.7343
69.8573
72.9926
76.1333
79.2863
82.443
85.611
88.7802
91.9591
95.1356
98.3194
101.496
104.677
107.844
111.012
114.158
117.302
120.415
123.522
126.586
129.644
132.644
135.641
138.564
141.49
144.324
147.173
149.913
152.683
155.328
158.025
160.591
163.223
165.764
168.247
170.958
173.508
175.559
179.491
182.611
179.022
188.782
194.799
180.128
196.204
223.766
213.425
197.533
213.284
245.619
260.744
270.415
272.212
268.564
-58.5724
-64.5597
-71.0384
-77.8521
-84.5434
-90.5843
-95.5999
-99.4162
-102.008
-103.443
-103.841
-103.35
-102.121
-100.3
-98.0167
-95.3786
-92.4743
-89.3739
-86.1328
-82.7938
-79.3897
-75.9456
-72.4805
-69.0086
-65.5405
-62.0837
-58.644
-55.225
-51.8293
-48.4585
-45.1133
-41.7939
-38.5
-35.2312
-31.9864
-28.7648
-25.565
-22.3859
-19.2261
-16.0842
-12.9588
-9.84856
-6.75192
-3.66758
-0.594012
2.47001
5.52603
8.57515
11.619
14.6583
17.695
20.7295
23.7638
26.7981
29.8343
32.8726
35.915
38.961
42.0132
45.0704
48.1356
51.2069
54.2878
57.3753
60.4737
63.5789
66.696
69.8195
72.9554
76.0967
79.2503
82.4076
85.5762
88.7461
91.9256
95.1028
98.2872
101.465
104.646
107.814
110.982
114.13
117.274
120.388
123.496
126.56
129.619
132.62
135.618
138.541
141.468
144.303
147.152
149.893
152.663
155.309
158.006
160.573
163.205
165.748
168.229
170.941
173.493
175.535
179.475
182.622
178.98
188.738
194.865
180.055
196
223.779
213.541
197.442
213.052
245.452
260.672
270.387
272.225
268.575
-57.5469
-62.3415
-67.5205
-73.001
-78.5031
-83.6727
-88.2087
-91.9156
-94.6985
-96.541
-97.485
-97.6107
-97.0173
-95.8133
-94.1056
-91.9914
-89.5551
-86.8677
-83.9876
-80.962
-77.8288
-74.618
-71.3533
-68.0533
-64.7323
-61.4014
-58.0691
-54.742
-51.4247
-48.1209
-44.8328
-41.5621
-38.3099
-35.0765
-31.862
-28.6662
-25.4885
-22.3282
-19.1844
-16.0562
-12.9425
-9.84212
-6.75392
-3.67675
-0.609254
2.44962
5.50132
8.54679
11.5876
14.6244
17.659
20.6918
23.7247
26.7579
29.7933
32.8309
35.8729
38.9187
41.9707
45.0279
48.0933
51.1647
54.2458
57.3336
60.4324
63.5381
66.6556
69.7797
72.9161
76.058
79.2121
82.3701
85.5394
88.7099
91.8901
95.068
98.2531
101.431
104.613
107.782
110.951
114.1
117.245
120.359
123.468
126.533
129.593
132.594
135.593
138.517
141.445
144.28
147.13
149.872
152.642
155.289
157.987
160.554
163.187
165.73
168.21
170.923
173.476
175.508
179.46
182.635
178.929
188.694
194.94
179.961
195.77
223.81
213.666
197.325
212.791
245.27
260.594
270.356
272.239
268.587
-56.2567
-60.1376
-64.3372
-68.7984
-73.3329
-77.7055
-81.6979
-85.1386
-87.9108
-89.9525
-91.2507
-91.8325
-91.7516
-91.0776
-89.8895
-88.2669
-86.2845
-84.009
-81.4983
-78.801
-75.9577
-73.0018
-69.9603
-66.8553
-63.7042
-60.5211
-57.3172
-54.1014
-50.8806
-47.6601
-44.4442
-41.2358
-38.0372
-34.8501
-31.6755
-28.514
-25.3658
-22.2308
-19.1088
-15.9993
-12.9016
-9.81494
-6.73846
-3.6713
-0.612346
2.43926
5.48478
8.52503
11.5614
14.5945
17.626
20.6563
23.687
26.7185
29.7526
32.7891
35.8302
38.8754
41.927
44.984
48.0492
51.1206
54.2018
57.2899
60.389
63.495
66.6129
69.7375
72.8744
76.0169
79.1716
82.3302
85.5002
88.6714
91.8523
95.031
98.2168
101.396
104.579
107.748
110.918
114.067
117.213
120.328
123.438
126.504
129.565
132.567
135.567
138.491
141.42
144.256
147.107
149.849
152.62
155.267
157.966
160.534
163.167
165.71
168.189
170.905
173.459
175.479
179.446
182.65
178.869
188.649
195.026
179.843
195.513
223.862
213.801
197.182
212.499
245.072
260.508
270.321
272.253
268.599
-54.7621
-57.9323
-61.3755
-65.0444
-68.7994
-72.4808
-75.9379
-79.0374
-81.6693
-83.754
-85.2476
-86.1399
-86.4486
-86.2094
-85.4723
-84.2955
-82.7394
-80.8622
-78.7172
-76.3519
-73.8073
-71.1185
-68.3149
-65.4208
-62.4563
-59.4381
-56.3796
-53.2917
-50.1832
-47.0614
-43.9318
-40.799
-37.6665
-34.5371
-31.4127
-28.2948
-25.1846
-22.0826
-18.9891
-15.9043
-12.8279
-9.75974
-6.69914
-3.64566
-0.59844
2.4431
5.48002
8.51291
11.543
14.5709
17.5979
20.6244
23.652
26.6809
29.7128
32.7476
35.7873
38.8314
41.8822
44.9386
48.0034
51.0746
54.1558
57.2439
60.3431
63.4494
66.5677
69.6927
72.8301
75.9732
79.1285
82.2877
85.4584
88.6303
91.812
94.9914
98.1781
101.358
104.542
107.712
110.883
114.033
117.18
120.296
123.406
126.474
129.535
132.538
135.539
138.464
141.394
144.231
147.082
149.825
152.597
155.245
157.944
160.512
163.146
165.69
168.167
170.885
173.441
175.446
179.433
182.666
178.799
188.605
195.124
179.7
195.226
223.936
213.947
197.014
212.176
244.857
260.412
270.28
272.266
268.611
-53.1138
-55.72
-58.5655
-61.6079
-64.7345
-67.8317
-70.7975
-73.5353
-75.9535
-77.9739
-79.5394
-80.618
-81.2017
-81.3005
-80.9387
-80.1523
-78.9848
-77.4826
-75.6915
-73.6545
-71.4108
-68.9954
-66.4385
-63.7662
-61.0003
-58.1596
-55.2593
-52.3123
-49.3291
-46.3186
-43.2877
-40.2424
-37.1872
-34.1261
-31.062
-27.9972
-24.9337
-21.8727
-18.8151
-15.7617
-12.7128
-9.66849
-6.6287
-3.59329
-0.561725
2.46627
5.49151
8.51434
11.5358
14.5563
17.577
20.5981
23.6212
26.6463
29.6751
32.7072
35.7448
38.7871
41.8366
44.8919
47.9559
51.0266
54.1074
57.1953
60.2946
63.401
66.5196
69.6449
72.7828
75.9263
79.0823
82.2422
85.4135
88.5862
91.7687
94.949
98.1366
101.317
104.502
107.673
110.845
113.996
117.144
120.261
123.373
126.441
129.503
132.508
135.509
138.435
141.366
144.204
147.056
149.8
152.573
155.221
157.92
160.489
163.123
165.668
168.144
170.864
173.421
175.41
179.42
182.685
178.717
188.561
195.234
179.53
194.909
224.034
214.105
196.822
211.828
244.62
260.302
270.231
272.276
268.624
-51.3404
-53.4931
-55.8596
-58.3998
-61.0172
-63.6263
-66.1582
-68.5456
-70.7182
-72.6075
-74.1557
-75.3211
-76.0799
-76.4245
-76.3596
-75.9015
-75.0767
-73.9179
-72.4609
-70.7419
-68.796
-66.6558
-64.3511
-61.9081
-59.3499
-56.6965
-53.9647
-51.1691
-48.3218
-45.4329
-42.511
-39.5631
-36.5951
-33.6117
-30.6169
-27.6139
-24.6051
-21.5928
-18.5785
-15.5633
-12.5481
-9.53353
-6.51989
-3.50744
-0.495981
2.51444
5.52437
8.53389
11.5438
14.5543
17.5664
20.5802
23.597
26.6167
29.6409
32.6692
35.7037
38.7433
41.7907
44.8443
47.907
50.9766
54.0567
57.1441
60.2431
63.3495
66.4681
69.5937
72.7319
75.8759
79.0325
82.193
85.3651
88.5386
91.7219
94.9031
98.0917
101.273
104.459
107.631
110.805
113.957
117.106
120.224
123.337
126.406
129.469
132.475
135.477
138.405
141.336
144.175
147.029
149.773
152.547
155.196
157.896
160.465
163.1
165.645
168.119
170.842
173.399
175.371
179.42
182.706
178.623
188.516
195.357
179.333
194.559
224.158
214.274
196.612
211.457
244.362
260.174
270.168
272.281
268.637
-49.463
-51.2477
-53.2258
-55.3589
-57.5606
-59.7631
-61.9194
-63.9844
-65.9063
-67.6292
-69.101
-70.2786
-71.1309
-71.6393
-71.7956
-71.601
-71.0668
-70.2121
-69.0618
-67.6435
-65.9862
-64.1184
-62.0676
-59.859
-57.5156
-55.0578
-52.5036
-49.8687
-47.1666
-44.4086
-41.6046
-38.7629
-35.8904
-32.9929
-30.0753
-27.1415
-24.195
-21.2384
-18.2739
-15.3033
-12.3279
-9.34877
-6.36663
-3.38215
-0.395446
2.5931
5.58375
8.57632
11.5714
14.5689
17.5697
20.5736
23.582
26.5943
29.6123
32.6353
35.6652
38.7011
41.7453
44.7962
47.8569
50.9248
54.0036
57.0901
60.1885
63.2944
66.4129
69.5385
72.6769
75.8213
78.9783
82.1395
85.3123
88.4866
91.6709
94.8531
98.0427
101.225
104.412
107.586
110.76
113.914
117.064
120.183
123.297
126.368
129.433
132.44
135.443
138.372
141.305
144.145
146.999
149.744
152.519
155.169
157.869
160.439
163.075
165.621
168.092
170.819
173.377
175.328
179.383
182.729
178.515
188.474
195.491
179.111
194.187
224.297
214.454
196.394
211.067
244.081
260.024
270.087
272.277
268.65
-47.4987
-48.9823
-50.6423
-52.4418
-54.3013
-56.1649
-57.9998
-59.7766
-61.4585
-63.0017
-64.3622
-65.5002
-66.3832
-66.9871
-67.2963
-67.302
-67.0036
-66.4085
-65.5306
-64.3887
-63.0044
-61.4006
-59.6009
-57.6282
-55.5041
-53.2486
-50.8799
-48.4144
-45.8662
-43.248
-40.5707
-37.8435
-35.0745
-32.2705
-29.4374
-26.5799
-23.7022
-20.8077
-17.8991
-14.9789
-12.0488
-9.11038
-6.1648
-3.21307
-0.255658
2.70673
5.67409
8.64594
11.6227
14.6039
17.5905
20.5818
23.5792
26.5819
29.5916
32.6074
35.6311
38.6617
41.7015
44.7487
47.8062
50.8716
53.9484
57.0333
60.1304
63.2355
66.3535
69.4788
72.6172
75.7618
78.9192
82.0808
85.2544
88.4295
91.6148
94.7979
97.9887
101.173
104.361
107.536
110.712
113.866
117.018
120.139
123.255
126.327
129.393
132.401
135.407
138.337
141.271
144.112
146.968
149.714
152.489
155.14
157.841
160.412
163.048
165.595
168.064
170.794
173.352
175.282
179.382
182.751
178.4
188.43
195.634
178.87
193.792
224.453
214.644
196.175
210.668
243.776
259.847
269.981
272.261
268.662
-45.4608
-46.6962
-48.0933
-49.6169
-51.1927
-52.7728
-54.334
-55.8578
-57.3185
-58.6829
-59.9151
-60.9806
-61.849
-62.4952
-62.8995
-63.0478
-62.9316
-62.5491
-61.905
-61.0093
-59.8758
-58.5215
-56.9649
-55.2251
-53.3213
-51.2722
-49.0951
-46.8063
-44.4204
-41.9505
-39.4084
-36.8042
-34.1469
-31.4443
-28.703
-25.9287
-23.1263
-20.3
-17.4531
-14.5887
-11.7092
-8.81645
-5.91212
-2.99763
-0.0737781
2.85838
5.79858
8.74606
11.701
14.6627
17.6319
20.6078
23.5915
26.5822
29.5812
32.5877
35.6034
38.6269
41.6607
44.7027
47.7559
50.8176
53.8914
56.9738
60.069
63.1726
66.2895
69.4141
72.5521
75.6965
78.8541
82.0162
85.1903
88.3662
91.5524
94.7367
97.9287
101.114
104.304
107.48
110.658
113.814
116.968
120.09
123.208
126.281
129.35
132.359
135.367
138.298
141.234
144.076
146.934
149.681
152.458
155.109
157.811
160.383
163.019
165.567
168.034
170.768
173.327
175.233
179.371
182.775
178.272
188.384
195.783
178.623
193.375
224.614
214.843
195.97
210.27
243.444
259.635
269.841
272.226
268.673
-43.3596
-44.3891
-45.5673
-46.8609
-48.2
-49.542
-50.8705
-52.1743
-53.4361
-54.6308
-55.7298
-56.7045
-57.5282
-58.177
-58.6306
-58.8723
-58.8892
-58.6733
-58.2222
-57.5384
-56.6288
-55.5038
-54.1764
-52.6615
-50.9748
-49.1325
-47.1504
-45.0438
-42.8271
-40.5133
-38.1146
-35.6418
-33.1045
-30.5112
-27.8694
-25.1856
-22.4654
-19.7137
-16.9346
-14.1317
-11.3079
-8.46573
-5.60725
-2.73432
0.151867
3.04992
5.95928
8.87886
11.8086
14.7477
17.6965
20.6541
23.6214
26.5974
29.5835
32.5784
35.584
38.5986
41.6245
44.6597
47.7071
50.7637
53.8333
56.9122
60.0045
63.1057
66.2208
69.344
72.4812
75.625
78.7824
81.9445
85.1191
88.2956
91.4827
94.668
97.8613
101.048
104.239
107.418
110.597
113.755
116.911
120.035
123.155
126.231
129.302
132.313
135.323
138.256
141.194
144.038
146.897
149.646
152.424
155.077
157.78
160.352
162.989
165.537
168.003
170.739
173.301
175.18
179.361
182.8
178.137
188.335
195.938
178.375
192.949
224.77
215.047
195.794
209.887
243.086
259.383
269.656
272.167
268.683
-41.2034
-42.0611
-43.056
-44.1565
-45.2967
-46.4382
-47.5687
-48.6823
-49.7676
-50.806
-51.7748
-52.6509
-53.4116
-54.0357
-54.5039
-54.7991
-54.9067
-54.8152
-54.5171
-54.0095
-53.2932
-52.3729
-51.2562
-49.9531
-48.4755
-46.8364
-45.0492
-43.1275
-41.0846
-38.9332
-36.6852
-34.3516
-31.9423
-29.4665
-26.9321
-24.3464
-21.7157
-19.0455
-16.3405
-13.6051
-10.8426
-8.05619
-5.24839
-2.42153
0.422813
3.28284
6.15769
9.04593
11.9473
14.8606
17.7861
20.7226
23.6709
26.6297
29.6005
32.5815
35.5748
38.5783
41.5946
44.6212
47.6611
50.7111
53.7751
56.8491
59.9374
63.0352
66.1476
69.2685
72.404
75.5467
78.7033
81.8651
85.0397
88.2165
91.4044
94.5907
97.7853
100.973
104.166
107.347
110.528
113.688
116.847
119.973
123.096
126.174
129.247
132.261
135.273
138.209
141.149
143.995
146.857
149.608
152.387
155.042
157.745
160.319
162.957
165.507
167.97
170.708
173.274
175.127
179.35
182.825
177.999
188.281
196.093
178.147
192.523
224.903
215.251
195.671
209.536
242.7
259.082
269.415
272.076
268.69
-38.9991
-39.713
-40.5534
-41.4908
-42.4629
-43.4346
-44.3964
-45.346
-46.2763
-47.1734
-48.0196
-48.796
-49.4843
-50.0661
-50.5242
-50.8424
-51.006
-51.002
-50.8203
-50.4539
-49.8994
-49.1565
-48.228
-47.1194
-45.8383
-44.3943
-42.7978
-41.0603
-39.1932
-37.2082
-35.1164
-32.9286
-30.6546
-28.3039
-25.8848
-23.405
-20.8712
-18.2897
-15.6658
-13.0043
-10.3092
-7.5843
-4.83244
-2.05653
0.741452
3.55926
6.3957
9.24898
12.1186
15.0029
17.9021
20.8147
23.7414
26.6806
29.6336
32.5986
35.5774
38.5679
41.5725
44.5886
47.6193
50.6611
53.718
56.7856
59.8685
62.9616
66.0702
69.1878
72.3208
75.4613
78.6166
81.7773
84.9514
88.1282
91.3164
94.5034
97.6991
100.889
104.083
107.265
110.449
113.612
116.773
119.902
123.028
126.109
129.186
132.202
135.218
138.156
141.1
143.948
146.812
149.566
152.347
155.004
157.709
160.285
162.922
165.475
167.936
170.675
173.248
175.073
179.335
182.849
177.865
188.219
196.239
177.96
192.109
224.994
215.447
195.624
209.237
242.285
258.726
269.106
271.945
268.692
-36.7524
-37.3452
-38.0549
-38.8538
-39.6832
-40.5104
-41.3282
-42.1366
-42.9314
-43.7024
-44.4357
-45.1161
-45.7286
-46.2581
-46.6896
-47.0085
-47.201
-47.2541
-47.1565
-46.8992
-46.4756
-45.8818
-45.1168
-44.1821
-43.0814
-41.8204
-40.4067
-38.8489
-37.1562
-35.3388
-33.4065
-31.3693
-29.2367
-27.0178
-24.7212
-22.3546
-19.9253
-17.4399
-14.9042
-12.3235
-9.70232
-7.04495
-4.35476
-1.63515
1.11149
3.88248
6.67625
9.49061
12.3248
15.1768
18.0466
20.9324
23.8346
26.7516
29.6844
32.631
35.5932
38.5686
41.5596
44.5634
47.5831
50.615
53.6631
56.7229
59.799
62.886
65.9894
69.1026
72.2318
75.3693
78.5222
81.681
84.854
88.0299
91.218
94.4052
97.6017
100.792
103.989
107.173
110.359
113.524
116.688
119.821
122.95
126.034
129.115
132.135
135.154
138.096
141.044
143.896
146.763
149.519
152.304
154.964
157.67
160.249
162.886
165.442
167.902
170.641
173.224
175.023
179.314
182.87
177.747
188.147
196.369
177.839
191.719
225.015
215.629
195.68
209.017
241.843
258.308
268.716
271.765
268.689
-34.468
-34.9587
-35.5572
-36.2379
-36.9455
-37.6495
-38.344
-39.0307
-39.7076
-40.3669
-40.9979
-41.5882
-42.1258
-42.5983
-42.993
-43.2973
-43.4985
-43.5847
-43.5445
-43.3679
-43.0467
-42.5747
-41.948
-41.1646
-40.2252
-39.132
-37.8895
-36.5033
-34.9804
-33.3287
-31.5564
-29.6724
-27.6853
-25.6036
-23.4355
-21.189
-18.8712
-16.4891
-14.0487
-11.5557
-9.01523
-6.43188
-3.80951
-1.15197
1.53792
4.25702
7.00342
9.7745
12.5692
15.3851
18.222
21.0778
23.9527
26.8447
29.7547
32.6806
35.6239
38.5821
41.5575
44.5471
47.5539
50.5742
53.6119
56.6622
59.73
62.8095
65.9064
69.0138
72.1381
75.2713
78.4207
81.5767
84.7475
87.9218
91.109
94.2958
97.4926
100.684
103.882
107.067
110.256
113.423
116.591
119.726
122.86
125.948
129.033
132.057
135.082
138.027
140.98
143.836
146.708
149.468
152.256
154.92
157.629
160.212
162.848
165.41
167.869
170.605
173.203
174.979
179.287
182.888
177.659
188.062
196.472
177.813
191.365
224.938
215.788
195.916
208.908
241.374
257.823
268.235
271.528
268.676
-32.15
-32.5543
-33.0581
-33.6375
-34.2405
-34.8389
-35.4277
-36.0095
-36.5837
-37.1448
-37.6841
-38.1917
-38.6578
-39.0723
-39.4247
-39.7043
-39.9001
-40.0011
-39.9968
-39.8772
-39.6334
-39.2579
-38.7448
-38.09
-37.2914
-36.3484
-35.2625
-34.0368
-32.6757
-31.1846
-29.5701
-27.8392
-25.9994
-24.0584
-22.0237
-19.9028
-17.7028
-15.4305
-13.0922
-10.694
-8.24089
-5.73819
-3.19001
-0.600668
2.02668
4.68843
7.38235
10.1054
12.8561
15.6319
18.4321
21.2542
24.0985
26.9625
29.847
32.7494
35.6714
38.6101
41.5678
44.5412
47.5333
50.5402
53.5658
56.6051
59.663
62.7335
65.8224
68.9227
72.0408
75.1685
78.3132
81.4651
84.6327
87.8044
90.9898
94.1753
97.3716
100.563
103.761
106.948
110.139
113.309
116.479
119.618
122.756
125.848
128.938
131.967
134.997
137.948
140.907
143.768
146.646
149.412
152.204
154.874
157.585
160.175
162.81
165.38
167.84
170.57
173.19
174.948
179.249
182.901
177.62
187.959
196.537
177.919
191.065
224.727
215.921
196.313
208.945
240.882
257.269
267.657
271.227
268.651
-29.8021
-30.1331
-30.5558
-31.048
-31.5611
-32.0687
-32.5665
-33.0577
-33.5428
-34.0177
-34.4753
-34.9079
-35.3072
-35.6653
-35.9734
-36.2225
-36.4031
-36.5058
-36.521
-36.4391
-36.2515
-35.9502
-35.5281
-34.9799
-34.3012
-33.4896
-32.5441
-31.4652
-30.2549
-28.9166
-27.4545
-25.874
-24.1811
-22.382
-20.4835
-18.4923
-16.415
-14.2584
-12.0284
-9.73127
-7.37226
-4.95678
-2.48927
0.0256013
2.58437
5.18299
7.81895
10.4887
13.1907
15.9217
18.681
21.4657
24.2757
27.1082
29.9641
32.8402
35.7383
38.6549
41.5927
44.5476
47.5232
50.5147
53.5264
56.553
59.5995
62.6596
65.7391
68.8308
71.9414
75.0623
78.2011
81.3478
84.511
87.679
90.8614
94.0447
97.2396
100.43
103.629
106.816
110.008
113.18
116.353
119.496
122.637
125.734
128.83
131.864
134.901
137.858
140.823
143.691
146.576
149.349
152.147
154.825
157.539
160.139
162.773
165.355
167.816
170.538
173.187
174.937
179.2
182.913
177.656
187.831
196.556
178.199
190.843
224.343
216.029
196.945
209.171
240.374
256.644
266.98
270.858
268.609
-27.4274
-27.6961
-28.0492
-28.4662
-28.9017
-29.3309
-29.7501
-30.163
-30.5706
-30.97
-31.3555
-31.7206
-32.0587
-32.3632
-32.6271
-32.8428
-33.0024
-33.0977
-33.1201
-33.0611
-32.9125
-32.6663
-32.3153
-31.8532
-31.2746
-30.5754
-29.7529
-28.8055
-27.7332
-26.5371
-25.2196
-23.7841
-22.2347
-20.5766
-18.815
-16.9558
-15.0048
-12.9683
-10.8519
-8.66163
-6.40275
-4.0808
-1.70028
0.733823
3.21785
5.74737
8.31965
10.9307
13.5788
16.2602
18.974
21.7168
24.4886
27.2859
30.1097
32.9563
35.8275
38.7194
41.6346
44.5688
47.5255
50.4997
53.4957
56.5078
59.5412
62.5893
65.658
68.7398
71.8414
74.9542
78.0859
81.2262
84.3838
87.547
90.7255
93.9055
97.098
100.287
103.484
106.672
109.864
113.038
116.214
119.359
122.505
125.606
128.707
131.747
134.791
137.755
140.728
143.604
146.497
149.279
152.085
154.774
157.493
160.106
162.738
165.336
167.803
170.512
173.2
174.954
179.136
182.926
177.793
187.673
196.527
178.708
190.737
223.748
216.126
197.855
209.623
239.859
255.955
266.209
270.417
268.545
-25.0287
-25.2445
-25.5377
-25.8895
-26.2577
-26.6191
-26.9705
-27.3155
-27.6558
-27.9891
-28.3109
-28.6158
-28.8983
-29.1531
-29.3745
-29.5561
-29.6913
-29.773
-29.794
-29.7467
-29.6235
-29.4169
-29.1199
-28.7259
-28.229
-27.6242
-26.9073
-26.0754
-25.1267
-24.0606
-22.8775
-21.5791
-20.1678
-18.6471
-17.0209
-15.2939
-13.4709
-11.5575
-9.55864
-7.48004
-5.32665
-3.10395
-0.816416
1.53082
3.93401
6.38842
8.89115
11.4378
14.0265
16.6531
19.3165
22.0129
24.7421
27.5002
30.2881
33.1017
35.9427
38.8068
41.6967
44.6075
47.543
50.4975
53.4758
56.4714
59.49
62.5244
65.5808
68.6512
71.7425
74.846
77.9692
81.1019
84.2529
87.4101
90.5836
93.7593
96.9485
100.134
103.33
106.517
109.709
112.884
116.061
119.209
122.359
125.464
128.571
131.617
134.668
137.64
140.622
143.507
146.41
149.203
152.018
154.721
157.445
160.077
162.709
165.326
167.805
170.497
173.232
175.011
179.064
182.948
178.083
187.489
196.448
179.549
190.797
222.916
216.216
199.073
210.326
239.348
255.21
265.355
269.904
268.456
-22.6087
-22.7793
-23.0209
-23.3162
-23.6258
-23.9284
-24.221
-24.5071
-24.7888
-25.0645
-25.3302
-25.5815
-25.814
-26.0233
-26.2046
-26.3527
-26.4621
-26.5268
-26.5405
-26.4967
-26.3885
-26.2092
-25.9521
-25.6109
-25.1794
-24.6521
-24.0243
-23.292
-22.4521
-21.5025
-20.4421
-19.271
-17.99
-16.601
-15.1064
-13.5097
-11.8145
-10.0254
-8.14652
-6.18305
-4.13944
-2.02093
0.168261
2.42296
4.73948
7.11288
9.5402
12.0168
14.5405
17.1068
19.7147
22.3597
25.0417
27.7562
30.504
33.2807
36.0879
38.9209
41.7823
44.6669
47.5784
50.5109
53.4691
56.4462
59.448
62.4669
65.5093
68.5668
71.6464
74.7391
77.8526
80.9766
84.1197
87.2699
90.4373
93.6079
96.7927
99.9751
103.169
106.353
109.545
112.719
115.898
119.048
122.201
125.31
128.422
131.475
134.533
137.514
140.505
143.401
146.314
149.121
151.946
154.667
157.398
160.054
162.687
165.328
167.827
170.499
173.287
175.119
178.974
182.983
178.541
187.291
196.324
180.702
191.071
221.844
216.324
200.597
211.283
238.855
254.423
264.436
269.326
268.338
-20.1697
-20.3018
-20.4989
-20.7449
-21.0036
-21.255
-21.4965
-21.7315
-21.9621
-22.1873
-22.4037
-22.6077
-22.7955
-22.9634
-23.1076
-23.2238
-23.3073
-23.3531
-23.3558
-23.3097
-23.2088
-23.0473
-22.8188
-22.5175
-22.1374
-21.673
-21.1191
-20.4712
-19.7253
-18.8784
-17.9282
-16.8733
-15.7131
-14.448
-13.0793
-11.6088
-10.0391
-8.3735
-6.61537
-4.769
-2.83816
-0.827663
1.25867
3.41583
5.64032
7.92713
10.2734
12.6741
15.1272
17.6278
20.1748
22.7633
25.3931
28.0593
30.7627
33.4983
36.2678
39.066
41.8955
44.7507
47.6353
50.5429
53.4785
56.4348
59.4176
62.419
65.4454
68.4884
71.5547
74.6354
77.7377
80.8517
83.9857
87.128
90.2882
93.4527
96.6322
99.8103
103
106.182
109.373
112.546
115.726
118.877
122.033
125.146
128.263
131.322
134.388
137.377
140.378
143.287
146.21
149.034
151.869
154.613
157.353
160.036
162.675
165.34
167.871
170.523
173.363
175.283
178.916
183.035
179.158
187.106
196.162
182.184
191.584
220.573
216.421
202.376
212.462
238.392
253.609
263.473
268.691
268.188
-17.7139
-17.8133
-17.9718
-18.1749
-18.3891
-18.5959
-18.7929
-18.9834
-19.1695
-19.3506
-19.5237
-19.6859
-19.8338
-19.9645
-20.0748
-20.1611
-20.2195
-20.2457
-20.2352
-20.183
-20.084
-19.933
-19.7243
-19.4526
-19.1122
-18.6979
-18.2045
-17.627
-16.9613
-16.2035
-15.3505
-14.3998
-13.3498
-12.1996
-10.949
-9.59895
-8.15045