/*--------------------------------*- C++ -*----------------------------------*\
| =========                 |                                                 |
| \\      /  F ield         | OpenFOAM: The Open Source CFD Toolbox           |
|  \\    /   O peration     | Version:  2412                                  |
|   \\  /    A nd           | Website:  www.openfoam.com                      |
|    \\/     M anipulation  |                                                 |
\*---------------------------------------------------------------------------*/
FoamFile
{
    version     2.0;
    format      ascii;
    arch        "LSB;label=32;scalar=64";
    class       volVectorField;
    location    "0.1";
    object      U;
}
// * * * * * * * * * * * * * * * * * * * * * * * * * * * * * * * * * * * * * //

dimensions      [0 1 -1 0 0 0 0];

internalField   nonuniform List<vector> 
12600
(
(0.191975 3.76753e-22 -0.296692)
(0.563083 9.97858e-22 -0.114776)
(0.626606 1.6537e-21 -0.107114)
(0.655011 0 -0.115082)
(0.67833 2.43964e-21 -0.122044)
(0.697244 2.76702e-21 -0.127088)
(0.713196 0 -0.130942)
(0.72691 0 -0.134096)
(0.738822 -1.4025e-20 -0.136781)
(0.749285 0 -0.139118)
(0.758565 7.78403e-21 -0.14118)
(0.766858 8.10682e-21 -0.142994)
(0.774357 -8.39696e-21 -0.144515)
(0.78117 0 -0.145879)
(0.787374 -8.86674e-21 -0.147128)
(0.79305 0 -0.148276)
(0.798266 3.70911e-20 -0.149336)
(0.803077 0 -0.150317)
(0.807529 -1.91395e-20 -0.151229)
(0.811661 -1.94254e-20 -0.15208)
(0.815506 1.96373e-20 -0.152878)
(0.819092 3.2463e-23 -0.153626)
(0.822444 0 -0.154328)
(0.825585 -4.01395e-20 -0.154989)
(0.828537 0 -0.155615)
(0.831316 0 -0.156206)
(0.833943 -4.05748e-20 -0.156769)
(0.836432 0 -0.157306)
(0.838796 -4.33518e-23 -0.157817)
(0.841052 4.0539e-20 -0.158307)
(0.84321 4.04659e-20 -0.158779)
(0.845278 4.03593e-20 -0.159231)
(0.847273 -4.02217e-20 -0.159671)
(0.849202 -8.01046e-20 -0.160098)
(0.851075 -7.97144e-20 -0.160509)
(0.852909 7.93287e-20 -0.160917)
(0.854712 0 -0.161316)
(0.856489 -7.82417e-20 -0.161708)
(0.858263 0 -0.162103)
(0.86004 7.70429e-20 -0.162494)
(0.861827 0 -0.162889)
(0.863652 -8.27891e-23 -0.163289)
(0.865505 0 -0.163693)
(0.86741 -7.40416e-23 -0.164107)
(0.869375 1.46999e-19 -0.16453)
(0.871406 -1.4533e-19 -0.164967)
(0.873528 1.4376e-19 -0.165418)
(0.87574 0 -0.165887)
(0.878071 0 -0.166377)
(0.88052 1.38616e-19 -0.166889)
(0.88311 2.7367e-19 -0.167428)
(0.885847 2.70072e-19 -0.167993)
(0.888747 -9.05859e-23 -0.168588)
(0.891823 2.62641e-19 -0.169215)
(0.89509 0 -0.169878)
(0.898561 -2.55242e-19 -0.17058)
(0.902248 -2.51447e-19 -0.171321)
(0.906166 -2.47588e-19 -0.172105)
(0.910324 0 -0.172935)
(0.914737 0 -0.173811)
(0.919415 0 -0.174738)
(0.924369 4.64641e-19 -0.175716)
(0.929612 0 -0.176749)
(0.935156 0 -0.177837)
(0.941016 -8.83052e-19 -0.178986)
(0.947197 0 -0.180194)
(0.953711 0 -0.181466)
(0.960559 0 -0.1828)
(0.967763 8.21987e-19 -0.184201)
(0.975312 -8.06901e-19 -0.185667)
(0.983244 -7.9186e-19 -0.187206)
(0.991535 -1.37723e-22 -0.188813)
(1.00025 7.62037e-19 -0.190502)
(1.00935 0 -0.192263)
(1.01895 -7.3254e-19 -0.19412)
(1.02895 0 -0.196052)
(1.03954 0 -0.198098)
(1.05053 0 -0.200219)
(1.06224 -1.97484e-22 -0.202479)
(1.07431 -1.32094e-18 -0.204807)
(1.08726 -1.29263e-18 -0.207304)
(1.10047 1.26441e-18 -0.209849)
(1.11479 1.23653e-18 -0.212608)
(1.1292 0 -0.215379)
(1.14501 0 -0.218423)
(1.16062 -2.30903e-18 -0.221424)
(1.17806 4.51003e-18 -0.224779)
(1.19486 -4.4034e-18 -0.228007)
(1.21407 -2.14897e-18 -0.231701)
(1.23206 0 -0.235158)
(1.25319 4.08947e-18 -0.239215)
(1.27238 -1.9934e-18 -0.242905)
(1.29557 1.94262e-18 -0.247352)
(1.31601 -3.78457e-18 -0.251256)
(1.34143 0 -0.256129)
(1.36319 0 -0.260282)
(1.39102 0 -0.265619)
(1.4141 0 -0.270022)
(1.44459 0 -0.27587)
(1.46874 0 -0.28048)
(1.50228 3.11389e-18 -0.286911)
(1.527 6.04234e-18 -0.291632)
(1.56416 5.86388e-18 -0.298753)
(1.58908 0 -0.303516)
(1.63026 0 -0.311404)
(1.65594 0 -0.31631)
(1.7007 5.16777e-18 -0.324885)
(1.72831 1.00003e-17 -0.330156)
(1.7754 -4.83612e-18 -0.339183)
(1.80577 0 -0.344981)
(1.85447 9.03231e-18 -0.354322)
(1.88716 0 -0.360563)
(1.93854 8.41433e-18 -0.370431)
(1.96972 -8.10813e-18 -0.376371)
(2.02797 7.81864e-18 -0.387598)
(2.04473 7.52087e-18 -0.390755)
(2.11984 -7.24092e-18 -0.405358)
(2.07845 4.13048e-22 -0.397375)
(2.18314 -6.66538e-18 -0.417694)
(1.83894 0 -0.351651)
(0.70917 -3.81709e-22 -0.70759)
(1.27939 0 -0.408761)
(1.54843 -1.67677e-21 -0.359421)
(1.70683 0 -0.359398)
(1.81702 -2.47455e-21 -0.369287)
(1.89947 -5.55451e-21 -0.379714)
(1.96535 -3.05392e-21 -0.389016)
(2.02029 0 -0.397226)
(2.06733 4.76068e-23 -0.404537)
(2.10832 -7.4578e-21 -0.411109)
(2.14456 7.8232e-21 -0.417059)
(2.17697 8.15312e-21 -0.422464)
(2.2062 -8.4506e-21 -0.427316)
(2.23273 8.71805e-21 -0.431775)
(2.25695 1.79564e-20 -0.435906)
(2.2792 0 -0.439746)
(2.29973 -7.47812e-23 -0.443325)
(2.31875 1.90582e-20 -0.44667)
(2.33644 1.94193e-20 -0.449806)
(2.35294 0 -0.452753)
(2.36837 0 -0.455531)
(2.38283 2.00661e-20 -0.458151)
(2.39643 0 -0.460626)
(2.40924 2.03351e-20 -0.46297)
(2.42134 -4.07558e-20 -0.465197)
(2.4328 0 -0.467314)
(2.44367 4.09807e-20 -0.469334)
(2.45402 0 -0.471265)
(2.4639 -4.10996e-20 -0.47311)
(2.47334 -8.20335e-20 -0.474882)
(2.48239 -8.1869e-20 -0.476589)
(2.49109 -4.08508e-20 -0.47823)
(2.49947 4.07002e-20 -0.479819)
(2.50759 1.61949e-19 -0.481364)
(2.51545 1.61117e-19 -0.482858)
(2.52312 0 -0.484323)
(2.53063 0 -0.485762)
(2.53798 9.43079e-23 -0.487171)
(2.54526 0 -0.488576)
(2.55249 -7.77768e-20 -0.489968)
(2.55968 0 -0.491358)
(2.56692 -1.52719e-19 -0.492761)
(2.57419 0 -0.494168)
(2.58156 -1.49632e-19 -0.495598)
(2.58905 0 -0.497051)
(2.59668 1.46335e-19 -0.498537)
(2.60454 0 -0.500063)
(2.61262 0 -0.501636)
(2.621 -1.40963e-19 -0.503268)
(2.62969 0 -0.504961)
(2.63875 0 -0.506726)
(2.64821 0 -0.508567)
(2.65811 -2.67156e-19 -0.510495)
(2.6685 -5.26466e-19 -0.512516)
(2.67941 0 -0.514641)
(2.6909 0 -0.516875)
(2.70299 2.514e-19 -0.519227)
(2.71573 2.47572e-19 -0.521701)
(2.72915 0 -0.524309)
(2.74329 0 -0.527054)
(2.75819 0 -0.529946)
(2.77388 0 -0.532988)
(2.79039 4.54944e-19 -0.536189)
(2.80777 -4.46964e-19 -0.539556)
(2.82605 8.78103e-19 -0.543097)
(2.84526 0 -0.546815)
(2.86542 0 -0.550718)
(2.88655 0 -0.554804)
(2.90871 -2.67754e-22 -0.559089)
(2.93187 7.99175e-19 -0.563565)
(2.95614 7.83564e-19 -0.568256)
(2.98146 -1.53591e-18 -0.573148)
(3.00804 -2.1766e-22 -0.578284)
(3.03573 7.37129e-19 -0.583633)
(3.06489 7.22111e-19 -0.589268)
(3.09522 0 -0.595127)
(3.12731 0 -0.601326)
(3.16055 0 -0.607747)
(3.19593 -1.32466e-18 -0.614581)
(3.23237 0 -0.621616)
(3.27142 0 -0.629159)
(3.3112 -1.23749e-18 -0.636838)
(3.35431 -1.20891e-18 -0.645161)
(3.39755 0 -0.653507)
(3.4451 0 -0.662683)
(3.49183 0 -0.671701)
(3.54423 -4.38952e-18 -0.681807)
(3.59439 4.06768e-22 -0.691491)
(3.65209 -2.08668e-18 -0.702612)
(3.70565 2.03361e-18 -0.712959)
(3.76911 -3.96285e-18 -0.725177)
(3.82607 -1.9293e-18 -0.736194)
(3.89577 -3.75696e-18 -0.749592)
(3.95622 0 -0.761287)
(4.03261 0 -0.775953)
(4.09676 0 -0.788385)
(4.18035 0 -0.804411)
(4.24828 -3.26331e-18 -0.817601)
(4.33974 0 -0.835114)
(4.41089 0 -0.848944)
(4.51126 2.98527e-18 -0.868159)
(4.58422 -2.89402e-18 -0.882336)
(4.69514 -1.12228e-17 -0.903598)
(4.76867 5.43424e-18 -0.91786)
(4.89151 0 -0.941462)
(4.96673 0 -0.956008)
(5.10056 0 -0.981766)
(5.18069 -4.76263e-18 -0.997235)
(5.32205 4.60252e-18 -1.02444)
(5.40984 0 -1.04141)
(5.55628 -1.7162e-17 -1.06952)
(5.65075 -8.27318e-18 -1.08787)
(5.80548 -1.59622e-17 -1.11745)
(5.89491 0 -1.13495)
(6.07195 0 -1.16858)
(6.11738 7.11694e-18 -1.17782)
(6.35046 0 -1.22158)
(6.22541 6.56741e-18 -1.19818)
(6.56608 6.29477e-18 -1.25901)
(5.61615 0 -1.07342)
(1.2069 0 -1.26819)
(1.8081 0 -0.845093)
(2.23221 -1.75552e-21 -0.692049)
(2.5288 0 -0.640805)
(2.74487 0 -0.629345)
(2.9098 2.63069e-21 -0.632231)
(3.04195 2.89431e-21 -0.639887)
(3.15185 0 -0.649)
(3.24568 2.79094e-23 -0.658385)
(3.32739 7.06834e-21 -0.667587)
(3.39962 -1.47978e-20 -0.676425)
(3.46421 -7.72747e-21 -0.684845)
(3.52252 3.20806e-23 -0.69285)
(3.57557 -8.2629e-21 -0.700426)
(3.62414 -8.49001e-21 -0.707595)
(3.66887 8.66248e-21 -0.714378)
(3.71025 -1.77452e-20 -0.720799)
(3.7487 -1.80626e-20 -0.726885)
(3.78456 0 -0.732662)
(3.8181 0 -0.738155)
(3.84958 1.87379e-20 -0.74338)
(3.87918 1.89142e-20 -0.748355)
(3.9071 0 -0.753097)
(3.93348 0 -0.757625)
(3.95847 3.86201e-20 -0.761957)
(3.98221 0 -0.766107)
(4.0048 -7.75871e-20 -0.770087)
(4.02634 3.87984e-20 -0.773912)
(4.04693 0 -0.777592)
(4.06665 3.88243e-20 -0.781135)
(4.08559 3.87464e-20 -0.784563)
(4.10381 0 -0.787876)
(4.12137 -3.84409e-20 -0.791082)
(4.13837 -7.66436e-20 -0.794211)
(4.15484 -9.56529e-23 -0.797245)
(4.17086 0 -0.800214)
(4.18652 0 -0.803137)
(4.20182 7.47644e-20 -0.805993)
(4.21689 0 -0.808832)
(4.23179 0 -0.81164)
(4.24652 0 -0.814429)
(4.26125 0 -0.817229)
(4.27594 0 -0.820022)
(4.2907 0 -0.822846)
(4.3056 0 -0.825693)
(4.32065 -1.38271e-19 -0.828585)
(4.336 1.36648e-19 -0.831534)
(4.35164 0 -0.834548)
(4.36772 1.33363e-19 -0.837652)
(4.38424 0 -0.840844)
(4.40131 0 -0.844146)
(4.41898 -2.55988e-19 -0.847564)
(4.43733 0 -0.851117)
(4.45642 2.48831e-19 -0.854814)
(4.47633 -2.44992e-19 -0.858674)
(4.49714 0 -0.862703)
(4.51889 -2.37625e-19 -0.866919)
(4.54166 0 -0.871329)
(4.56552 0 -0.87595)
(4.59053 0 -0.880789)
(4.61674 -4.44726e-19 -0.885861)
(4.64421 -4.3713e-19 -0.891173)
(4.67301 -1.54703e-22 -0.89674)
(4.70318 8.43964e-19 -0.902571)
(4.73482 -1.38569e-22 -0.908682)
(4.76794 0 -0.915074)
(4.80261 0 -0.921764)
(4.83883 7.83329e-19 -0.928747)
(4.87672 -2.23202e-22 -0.936052)
(4.91623 0 -0.943665)
(4.95756 0 -0.951626)
(5.00059 7.24081e-19 -0.959915)
(5.04568 -1.80395e-22 -0.9686)
(5.09259 -1.71076e-22 -0.977635)
(5.14192 0 -0.987139)
(5.19316 0 -0.997007)
(5.24729 1.30328e-18 -1.00744)
(5.30331 -1.27503e-18 -1.01823)
(5.36288 0 -1.0297)
(5.42411 0 -1.04149)
(5.48974 0 -1.05413)
(5.55644 0 -1.06697)
(5.62876 0 -1.08089)
(5.7011 0 -1.09481)
(5.78077 0 -1.11013)
(5.85875 0 -1.12514)
(5.94649 4.1265e-18 -1.142)
(6.02998 2.01203e-18 -1.15807)
(6.12659 1.96119e-18 -1.17662)
(6.21547 -1.91092e-18 -1.19374)
(6.32177 3.7224e-18 -1.21412)
(6.41597 1.81217e-18 -1.23229)
(6.53276 1.76392e-18 -1.25465)
(6.63239 0 -1.27392)
(6.76042 0 -1.29838)
(6.86583 0 -1.31883)
(7.00586 0 -1.34551)
(7.11729 3.0615e-18 -1.36719)
(7.27027 0 -1.39629)
(7.38702 0 -1.41904)
(7.55452 -2.79906e-18 -1.45088)
(7.6744 0 -1.47424)
(7.85911 5.25908e-18 -1.50941)
(7.97985 -5.09247e-18 -1.53287)
(8.18421 0 -1.57193)
(8.30702 0 -1.59565)
(8.52994 0 -1.63841)
(8.65976 -4.45905e-18 -1.66339)
(8.89589 0 -1.70869)
(9.03746 4.1593e-18 -1.73597)
(9.28255 7.7556e-22 -1.78282)
(9.43445 7.74279e-18 -1.81231)
(9.69421 1.49352e-17 -1.86161)
(9.83612 0 -1.88958)
(10.1364 -6.92581e-18 -1.94585)
(10.2025 -6.657e-18 -1.96)
(10.6047 -6.40341e-18 -2.03372)
(10.3913 0 -1.99507)
(10.9958 -5.88579e-18 -2.0975)
(9.53662 0 -1.81199)
(1.67413 0 -1.82483)
(2.24606 0 -1.34428)
(2.74525 1.66066e-21 -1.09648)
(3.14614 0 -0.977509)
(3.46228 -2.26373e-21 -0.925152)
(3.71524 4.99688e-21 -0.905319)
(3.92291 0 -0.901024)
(4.09771 -5.89024e-21 -0.90425)
(4.24798 6.29771e-21 -0.911179)
(4.37945 6.63373e-21 -0.919926)
(4.49607 6.98473e-21 -0.929516)
(4.60071 -7.2509e-21 -0.939425)
(4.69546 7.547e-21 -0.94936)
(4.78192 -1.55135e-20 -0.959161)
(4.86133 0 -0.96874)
(4.93465 -1.63605e-20 -0.978047)
(5.00269 0 -0.987053)
(5.06609 0 -0.99575)
(5.12537 0 -1.00414)
(5.18099 1.74767e-20 -1.01223)
(5.23333 -4.97396e-23 -1.02002)
(5.28269 -4.75931e-23 -1.02753)
(5.32937 1.79841e-20 -1.03475)
(5.3736 0 -1.04172)
(5.41561 0 -1.04844)
(5.45559 0 -1.05494)
(5.49372 7.3238e-20 -1.06121)
(5.53016 -7.11901e-23 -1.06728)
(5.56505 0 -1.07315)
(5.59852 0 -1.07884)
(5.6307 0 -1.08437)
(5.66169 0 -1.08974)
(5.69157 7.26426e-20 -1.09495)
(5.7205 0 -1.10006)
(5.74853 -7.2e-20 -1.10503)
(5.77577 0 -1.1099)
(5.80236 0 -1.1147)
(5.8283 -7.0516e-20 -1.1194)
(5.85377 0 -1.12407)
(5.87885 0 -1.12868)
(5.90357 6.87718e-20 -1.13326)
(5.92813 -1.36244e-19 -1.13784)
(5.95254 0 -1.1424)
(5.97691 -1.33483e-19 -1.14699)
(6.00135 0 -1.1516)
(6.0259 2.61161e-19 -1.15626)
(6.05073 -1.00707e-22 -1.16099)
(6.07588 0 -1.16579)
(6.10152 0 -1.17071)
(6.12768 -1.2415e-19 -1.17574)
(6.1545 -2.44949e-19 -1.18091)
(6.18207 4.8328e-19 -1.18622)
(6.21048 0 -1.19172)
(6.23985 2.34652e-19 -1.19739)
(6.27026 2.31261e-19 -1.20329)
(6.30183 2.27609e-19 -1.20941)
(6.33464 2.24039e-19 -1.21577)
(6.36879 0 -1.22239)
(6.40437 0 -1.22929)
(6.44148 4.26553e-19 -1.23648)
(6.48018 8.38818e-19 -1.24398)
(6.52057 4.12283e-19 -1.2518)
(6.56273 -1.66057e-22 -1.25997)
(6.60674 -3.97821e-19 -1.26848)
(6.65271 -3.90595e-19 -1.27738)
(6.70066 0 -1.28665)
(6.75071 0 -1.29632)
(6.80285 -7.38186e-19 -1.30639)
(6.85725 -1.44765e-18 -1.31689)
(6.91385 0 -1.32781)
(6.97292 -6.9551e-19 -1.3392)
(7.0343 -6.81546e-19 -1.35105)
(7.09851 -6.67845e-19 -1.36343)
(7.16519 -1.30791e-18 -1.3763)
(7.2352 0 -1.38981)
(7.30779 0 -1.40382)
(7.38441 -1.22641e-18 -1.41861)
(7.46354 2.39892e-18 -1.43388)
(7.54763 1.17271e-18 -1.45011)
(7.6339 0 -1.46676)
(7.72636 0 -1.48459)
(7.82009 0 -1.50267)
(7.92181 0 -1.52228)
(8.02318 0 -1.54183)
(8.13511 0 -1.56338)
(8.24406 1.98675e-18 -1.5844)
(8.36725 -3.87034e-22 -1.60809)
(8.48355 -1.88898e-18 -1.63054)
(8.61918 0 -1.65658)
(8.74256 -1.79343e-18 -1.68042)
(8.89185 -1.74691e-18 -1.70904)
(9.02211 0 -1.73426)
(9.18624 1.65461e-18 -1.76566)
(9.32344 3.21845e-18 -1.79229)
(9.50341 0 -1.82663)
(9.64805 0 -1.85481)
(9.84476 0 -1.89225)
(9.99737 2.86936e-18 -1.92207)
(10.2119 0 -1.96281)
(10.3718 0 -1.99412)
(10.6061 -2.62211e-18 -2.03858)
(10.7704 2.54074e-18 -2.07076)
(11.0281 0 -2.11974)
(11.1935 0 -2.15203)
(11.4782 0 -2.20641)
(11.6455 0 -2.23885)
(11.9564 0 -2.29848)
(12.1318 5.24773e-22 -2.3323)
(12.4618 0 -2.39565)
(12.652 -3.89212e-18 -2.43237)
(12.9954 7.51395e-18 -2.498)
(13.1981 0 -2.53754)
(13.5639 -7.88575e-22 -2.60674)
(13.7493 0 -2.64377)
(14.1773 6.98438e-22 -2.72324)
(14.2523 0 -2.74061)
(14.8343 5.98694e-18 -2.84527)
(14.5267 0 -2.79116)
(15.4135 -5.50097e-18 -2.93471)
(13.5659 0 -2.56809)
(2.11079 0 -2.34061)
(2.62894 0 -1.85776)
(3.14108 0 -1.54866)
(3.60018 0 -1.36533)
(3.99216 2.13801e-21 -1.26234)
(4.32345 3.13483e-23 -1.20738)
(4.60528 0 -1.18019)
(4.84794 5.56325e-21 -1.16898)
(5.05967 0 -1.16703)
(5.24679 -1.25192e-20 -1.17053)
(5.41407 0 -1.1773)
(5.56505 6.84849e-21 -1.18602)
(5.70246 0 -1.1959)
(5.8284 1.46525e-20 -1.20644)
(5.94453 -7.50432e-21 -1.21733)
(6.05216 1.53986e-20 -1.22834)
(6.15237 -1.56975e-20 -1.23935)
(6.24605 -1.59851e-20 -1.25026)
(6.33393 0 -1.26101)
(6.41663 -1.65057e-20 -1.27156)
(6.49466 -1.66934e-20 -1.28189)
(6.56848 -3.36598e-20 -1.29196)
(6.63847 -1.69839e-20 -1.30178)
(6.70497 0 -1.31135)
(6.76828 0 -1.32067)
(6.82868 0 -1.32976)
(6.8864 -3.45431e-20 -1.3386)
(6.94167 -3.45816e-20 -1.34721)
(6.99468 0 -1.3556)
(7.04561 0 -1.36378)
(7.09463 3.44247e-20 -1.37176)
(7.14191 0 -1.37955)
(7.18754 -5.32706e-23 -1.38715)
(7.23172 -6.81229e-20 -1.39462)
(7.27456 6.77776e-20 -1.40191)
(7.31616 0 -1.40908)
(7.35672 0 -1.41615)
(7.39629 6.65552e-20 -1.42308)
(7.43503 0 -1.42997)
(7.47309 0 -1.43678)
(7.51053 -6.48976e-20 -1.44353)
(7.54756 1.28561e-19 -1.45027)
(7.58423 0 -1.45697)
(7.62068 1.25938e-19 -1.4637)
(7.65705 0 -1.47044)
(7.69342 -1.23132e-19 -1.47723)
(7.72998 -1.21672e-19 -1.48409)
(7.7668 0 -1.49103)
(7.80409 -1.1855e-19 -1.49811)
(7.84191 1.17079e-19 -1.5053)
(7.88044 4.61801e-19 -1.51266)
(7.91977 -2.27767e-19 -1.52019)
(7.96006 2.24355e-19 -1.52793)
(8.00143 -1.34328e-22 -1.53589)
(8.04403 0 -1.5441)
(8.08797 -2.14528e-19 -1.55258)
(8.13338 -2.11142e-19 -1.56136)
(8.18038 2.07652e-19 -1.57045)
(8.2291 -2.04241e-19 -1.57987)
(8.27964 -4.0187e-19 -1.58965)
(8.33213 -3.95008e-19 -1.59981)
(8.38665 3.88e-19 -1.61036)
(8.44334 -3.81308e-19 -1.62132)
(8.50229 0 -1.63272)
(8.56361 0 -1.64458)
(8.62737 -3.60693e-19 -1.65689)
(8.69371 0 -1.6697)
(8.76261 0 -1.68299)
(8.83431 6.81076e-19 -1.69683)
(8.90871 0 -1.71117)
(8.9862 6.54362e-19 -1.72611)
(9.06654 1.28207e-18 -1.7416)
(9.15041 0 -1.75777)
(9.23733 6.14916e-19 -1.77454)
(9.32845 0 -1.79212)
(9.42274 0 -1.81032)
(9.52213 1.15224e-18 -1.8295)
(9.62458 -1.12721e-18 -1.84928)
(9.73337 -2.82433e-22 -1.87028)
(9.8447 0 -1.89177)
(9.96404 0 -1.91479)
(10.0846 0 -1.93806)
(10.2157 1.00345e-18 -1.96331)
(10.3457 -9.7949e-19 -1.98841)
(10.4898 0 -2.01612)
(10.629 -3.72954e-18 -2.043)
(10.7875 -1.8185e-18 -2.07343)
(10.9356 3.54488e-18 -2.10204)
(11.11 1.72691e-18 -2.13548)
(11.2665 3.36451e-18 -2.16575)
(11.4586 0 -2.2025)
(11.623 0 -2.23438)
(11.8344 -1.55146e-18 -2.27471)
(12.0067 -3.01732e-18 -2.30824)
(12.2386 2.93352e-18 -2.35235)
(12.4195 0 -2.38769)
(12.6727 0 -2.43573)
(12.8631 -2.6884e-18 -2.47307)
(13.1386 -2.60999e-18 -2.5252)
(13.338 0 -2.56441)
(13.6381 2.45566e-18 -2.6211)
(13.8433 -2.37911e-18 -2.66145)
(14.1724 0 -2.72374)
(14.3786 0 -2.76416)
(14.7416 0 -2.83326)
(14.949 0 -2.87357)
(15.3454 0 -2.94945)
(15.561 3.90464e-18 -2.99102)
(15.9827 0 -3.07184)
(16.2147 0 -3.11661)
(16.6549 0 -3.20053)
(16.8995 -6.77183e-18 -3.24841)
(17.3719 -6.5307e-18 -3.33722)
(17.5882 0 -3.38116)
(18.1483 6.05446e-18 -3.48381)
(18.2168 0 -3.50222)
(18.9869 5.59489e-18 -3.63748)
(18.5814 0 -3.56876)
(19.7506 5.14083e-18 -3.74992)
(17.6522 0 -3.32839)
(2.51712 -1.79084e-21 -2.82114)
(2.97553 -1.80172e-21 -2.36328)
(3.46269 1.86834e-21 -2.02423)
(3.93736 1.99141e-21 -1.79129)
(4.37201 0 -1.63893)
(4.75991 -2.26143e-21 -1.54303)
(5.10347 0 -1.48482)
(5.40802 5.29211e-21 -1.45116)
(5.67937 5.6069e-21 -1.43339)
(5.92289 1.18001e-20 -1.42596)
(6.14309 -6.1759e-21 -1.42533)
(6.34367 6.42789e-21 -1.42922)
(6.52756 0 -1.43614)
(6.69716 0 -1.44512)
(6.8544 7.07743e-21 -1.45547)
(7.00083 -2.11821e-23 -1.46674)
(7.13777 4.3589e-23 -1.4786)
(7.26629 4.40364e-23 -1.49082)
(7.3873 0 -1.50324)
(7.50157 0 -1.51572)
(7.60975 0 -1.52819)
(7.7124 3.16587e-20 -1.54057)
(7.81002 1.59354e-20 -1.55281)
(7.90304 0 -1.56491)
(7.99184 0 -1.57682)
(8.07676 3.23555e-20 -1.58855)
(8.1581 0 -1.60007)
(8.23614 0 -1.61138)
(8.31115 0 -1.62249)
(8.38333 0 -1.63338)
(8.45292 -5.74393e-23 -1.64407)
(8.52012 0 -1.65457)
(8.58506 -5.2129e-23 -1.66485)
(8.64798 6.42184e-20 -1.67499)
(8.70902 -9.43561e-23 -1.68494)
(8.76832 0 -1.69474)
(8.82611 0 -1.70444)
(8.88246 0 -1.71397)
(8.93757 0 -1.72344)
(8.99162 0 -1.73282)
(9.0447 0 -1.74212)
(9.09705 0 -1.7514)
(9.14874 -1.19691e-19 -1.76061)
(9.19996 -1.18433e-19 -1.76985)
(9.25087 0 -1.77909)
(9.30158 -1.15798e-19 -1.78837)
(9.35232 0 -1.79773)
(9.40318 0 -1.80717)
(9.4544 2.23233e-19 -1.81675)
(9.50609 0 -1.82646)
(9.55843 -2.17376e-19 -1.83635)
(9.61158 0 -1.84642)
(9.66573 -4.22363e-19 -1.85673)
(9.721 -1.34939e-22 -1.86728)
(9.77759 0 -1.87813)
(9.83565 0 -1.88926)
(9.89532 0 -1.90074)
(9.95676 -3.90773e-19 -1.91257)
(10.0201 3.84321e-19 -1.92479)
(10.0856 3.77788e-19 -1.93741)
(10.1532 3.71315e-19 -1.95046)
(10.2231 -7.29903e-19 -1.96396)
(10.2956 -3.58387e-19 -1.97795)
(10.3706 0 -1.99243)
(10.4484 0 -2.00744)
(10.5289 1.40717e-22 -2.02298)
(10.6125 0 -2.03909)
(10.699 0 -2.05576)
(10.7887 6.39811e-19 -2.07306)
(10.8817 0 -2.09096)
(10.9782 0 -2.10955)
(11.078 -1.20443e-18 -2.12879)
(11.182 5.89687e-19 -2.14884)
(11.2895 0 -2.16958)
(11.4021 0 -2.19129)
(11.5182 0 -2.21372)
(11.6406 -1.08212e-18 -2.23734)
(11.7663 0 -2.26163)
(11.8998 -2.06858e-18 -2.2874)
(12.0359 1.01064e-18 -2.31371)
(12.1819 0 -2.34188)
(12.3289 0 -2.37028)
(12.489 -9.41613e-19 -2.40112)
(12.6468 2.21557e-22 -2.43163)
(12.8226 -8.96385e-19 -2.46541)
(12.991 1.74894e-18 -2.49797)
(13.1841 -1.70475e-18 -2.53504)
(13.3624 -1.66189e-18 -2.56955)
(13.5752 -1.61913e-18 -2.61028)
(13.7626 -3.27061e-22 -2.64662)
(13.9971 0 -2.69139)
(14.1929 1.49371e-18 -2.72947)
(14.451 0 -2.77862)
(14.655 0 -2.81846)
(14.9383 -2.74814e-18 -2.87222)
(15.1514 0 -2.91403)
(15.4605 0 -2.97252)
(15.6841 0 -3.01658)
(16.0196 2.44376e-18 -3.07988)
(16.2537 0 -3.12616)
(16.6178 2.29795e-18 -3.19471)
(16.8588 0 -3.24239)
(17.2567 0 -3.31743)
(17.4987 0 -3.36514)
(17.9367 0 -3.44828)
(18.1786 0 -3.49551)
(18.6567 3.77866e-18 -3.5869)
(18.9058 3.651e-18 -3.63505)
(19.4154 -3.52644e-18 -3.73263)
(19.6807 0 -3.78394)
(20.2149 0 -3.88558)
(20.4898 1.26612e-17 -3.93979)
(21.0689 0 -4.048)
(21.3002 -5.87387e-18 -4.09625)
(21.9958 0 -4.22218)
(22.0406 -5.43586e-18 -4.23918)
(23.0007 -5.22832e-18 -4.40429)
(22.4999 0 -4.32254)
(23.9272 4.80245e-18 -4.53597)
(21.7238 0 -4.08269)
(2.89679 1.68626e-21 -3.27049)
(3.29867 3.58935e-21 -2.84822)
(3.74223 -1.75967e-21 -2.50278)
(4.20098 1.28478e-22 -2.23879)
(4.64598 2.11643e-21 -2.04623)
(5.06328 0 -1.9107)
(5.44815 0 -1.81807)
(5.80037 -4.98464e-21 -1.75648)
(6.12208 -1.06031e-20 -1.71693)
(6.41636 2.35788e-23 -1.69291)
(6.6865 5.81712e-21 -1.67986)
(6.93551 -6.05445e-21 -1.6746)
(7.16606 6.26676e-21 -1.67492)
(7.38045 0 -1.67925)
(7.5806 0 -1.6865)
(7.76816 -6.80784e-21 -1.69588)
(7.94452 2.77719e-20 -1.7068)
(8.11086 2.82794e-20 -1.71885)
(8.26818 0 -1.7317)
(8.41736 0 -1.74511)
(8.55913 0 -1.7589)
(8.69414 -3.69314e-23 -1.77292)
(8.82298 -2.99793e-20 -1.78707)
(8.94614 1.50688e-20 -1.80128)
(9.06406 3.02902e-20 -1.81549)
(9.17714 -6.08731e-20 -1.82965)
(9.28575 3.04788e-20 -1.84372)
(9.3902 3.05194e-20 -1.85767)
(9.49082 3.05266e-20 -1.87148)
(9.58785 0 -1.88513)
(9.68156 -3.05059e-20 -1.89863)
(9.77219 3.03706e-20 -1.91196)
(9.85993 -3.03165e-20 -1.92511)
(9.94502 -6.02726e-20 -1.93812)
(10.0276 -1.20032e-19 -1.95096)
(10.108 0 -1.96364)
(10.1863 0 -1.97623)
(10.2626 -5.88227e-20 -1.98865)
(10.3373 0 -2.001)
(10.4104 5.78828e-20 -2.01326)
(10.4822 5.73689e-20 -2.02542)
(10.5528 0 -2.03756)
(10.6224 2.25167e-19 -2.04964)
(10.6912 1.11454e-19 -2.06172)
(10.7594 0 -2.07379)
(10.8271 1.08962e-19 -2.08592)
(10.8946 1.07566e-19 -2.09811)
(10.962 0 -2.11039)
(11.0295 -2.09845e-19 -2.1228)
(11.0974 1.03496e-19 -2.13536)
(11.1659 2.04172e-19 -2.1481)
(11.235 0 -2.16103)
(11.3051 1.41798e-22 -2.17422)
(11.3763 -3.91126e-19 -2.18767)
(11.4488 0 -2.20144)
(11.5228 0 -2.21553)
(11.5985 1.86547e-19 -2.22999)
(11.676 1.83647e-19 -2.24482)
(11.7557 -3.61102e-19 -2.26009)
(11.8375 -3.55128e-19 -2.27579)
(11.9217 -3.49012e-19 -2.29197)
(12.0084 3.42919e-19 -2.30864)
(12.0979 6.73435e-19 -2.32585)
(12.1901 0 -2.34361)
(12.2854 0 -2.36195)
(12.3838 6.36953e-19 -2.38088)
(12.4855 0 -2.40044)
(12.5904 0 -2.42063)
(12.699 -6.00916e-19 -2.44151)
(12.8111 0 -2.46306)
(12.9272 5.76894e-19 -2.48539)
(13.047 2.05893e-22 -2.50845)
(13.1715 -5.536e-19 -2.53243)
(13.2999 0 -2.55718)
(13.434 0 -2.58304)
(13.5721 0 -2.6097)
(13.7173 -1.01481e-18 -2.63772)
(13.8661 0 -2.66648)
(14.024 9.70187e-19 -2.69697)
(14.1844 -1.89577e-18 -2.728)
(14.3567 0 -2.76122)
(14.5292 0 -2.79459)
(14.7177 0 -2.83088)
(14.9021 2.21603e-22 -2.86657)
(15.1088 8.40332e-19 -2.90627)
(15.3047 1.6386e-18 -2.9442)
(15.5317 1.59775e-18 -2.9877)
(15.738 -1.55669e-18 -3.02771)
(15.9882 0 -3.0755)
(16.2036 -1.47707e-18 -3.1174)
(16.4796 0 -3.16996)
(16.7031 -1.3991e-18 -3.21359)
(17.0073 0 -3.27132)
(17.2385 0 -3.31668)
(17.5723 0 -3.37984)
(17.8125 2.4983e-18 -3.42719)
(18.1763 2.42705e-18 -3.4958)
(18.4274 0 -3.54558)
(18.8212 -2.28627e-18 -3.61958)
(19.0841 2.21645e-18 -3.67187)
(19.5094 -2.15012e-18 -3.75164)
(19.7804 2.08228e-18 -3.80559)
(20.2433 0 -3.89252)
(20.5151 0 -3.94643)
(21.0233 0 -4.04258)
(21.2931 0 -4.09549)
(21.8478 -3.53336e-18 -4.2013)
(22.1225 -5.04023e-22 -4.25451)
(22.7149 6.5933e-18 -4.36776)
(23.0032 0 -4.42371)
(23.6278 0 -4.54213)
(23.9188 -5.91655e-18 -4.60018)
(24.604 0 -4.72719)
(24.8317 5.48913e-18 -4.77673)
(25.6641 0 -4.92521)
(25.6687 1.01574e-17 -4.93861)
(26.8113 0 -5.13045)
(26.2284 0 -5.03941)
(27.8635 -4.48623e-18 -5.27257)
(25.6941 0 -4.81479)
(3.25512 0 -3.69194)
(3.60721 -1.78028e-21 -3.30711)
(4.0016 0 -2.97033)
(4.42598 -1.88541e-21 -2.69217)
(4.85638 -4.09522e-21 -2.47197)
(5.27731 0 -2.30346)
(5.68027 2.3087e-21 -2.178)
(6.06093 0 -2.08672)
(6.41783 -6.71624e-23 -2.02177)
(6.75137 -1.05508e-20 -1.97678)
(7.06292 0 -1.9468)
(7.35424 0 -1.92808)
(7.6272 -5.89589e-21 -1.91785)
(7.88358 0 -1.91403)
(8.12502 0 -1.91508)
(8.35298 0 -1.91986)
(8.56876 -1.3048e-20 -1.92749)
(8.7735 -1.32856e-20 -1.93732)
(8.96819 -1.34677e-20 -1.94885)
(9.15371 0 -1.96167)
(9.33083 0 -1.97548)
(9.50023 -1.39715e-20 -1.99004)
(9.66252 1.40839e-20 -2.00516)
(9.81823 -1.41752e-20 -2.02069)
(9.96783 -2.84933e-20 -2.03653)
(10.1118 5.71368e-20 -2.05258)
(10.2504 -5.95416e-23 -2.06875)
(10.3842 -2.8707e-20 -2.08498)
(10.5133 -2.87131e-20 -2.10124)
(10.6382 0 -2.11745)
(10.759 0 -2.13362)
(10.8762 -2.8564e-20 -2.14972)
(10.9898 0 -2.16571)
(11.1001 5.66836e-20 -2.18162)
(11.2074 5.63972e-20 -2.19741)
(11.3119 -5.59876e-20 -2.21308)
(11.4137 0 -2.22869)
(11.5131 5.53121e-20 -2.24417)
(11.6103 5.48089e-20 -2.25959)
(11.7055 -6.96235e-23 -2.27493)
(11.7989 -1.07811e-19 -2.2902)
(11.8906 0 -2.30544)
(11.981 -1.05785e-19 -2.32063)
(12.0702 0 -2.33582)
(12.1583 0 -2.35101)
(12.2457 0 -2.36626)
(12.3326 -9.72638e-23 -2.38157)
(12.419 0 -2.39698)
(12.5054 9.8568e-20 -2.41253)
(12.5919 -1.94443e-19 -2.42822)
(12.6787 -1.91864e-19 -2.4441)
(12.766 0 -2.46019)
(12.8542 1.86433e-19 -2.47655)
(12.9433 3.67219e-19 -2.49318)
(13.0337 0 -2.51014)
(13.1256 0 -2.52744)
(13.2191 -1.75233e-19 -2.54513)
(13.3145 -1.72287e-19 -2.56322)
(13.412 1.69528e-19 -2.58177)
(13.5117 3.3314e-19 -2.60078)
(13.614 0 -2.62031)
(13.7188 0 -2.64036)
(13.8266 -1.64873e-22 -2.66098)
(13.9373 3.10182e-19 -2.68218)
(14.0512 0 -2.70402)
(14.1683 -2.98882e-19 -2.72648)
(14.289 0 -2.74962)
(14.4132 0 -2.77342)
(14.5413 0 -2.79799)
(14.6731 0 -2.82327)
(14.8093 -2.1711e-22 -2.84941)
(14.9494 2.06241e-22 -2.87632)
(15.0947 5.18937e-19 -2.90425)
(15.2441 0 -2.93301)
(15.3998 4.97122e-19 -2.96301)
(15.5596 0 -2.99385)
(15.7275 9.51586e-19 -3.02622)
(15.8989 -9.30054e-19 -3.05936)
(16.0807 9.08995e-19 -3.09445)
(16.2647 8.88422e-19 -3.13005)
(16.4625 0 -3.16818)
(16.6593 -8.4703e-19 -3.20629)
(16.8753 0 -3.24784)
(17.0847 8.06956e-19 -3.28842)
(17.3212 7.86898e-19 -3.33379)
(17.5423 -1.53503e-18 -3.3767)
(17.8021 0 -3.42638)
(18.0334 2.9156e-18 -3.47137)
(18.3199 0 -3.52596)
(18.5596 -1.38248e-18 -3.57276)
(18.876 0 -3.63283)
(19.1227 -1.30925e-18 -3.68121)
(19.4717 0 -3.74723)
(19.7248 -2.47594e-18 -3.79716)
(20.1079 2.40676e-18 -3.86938)
(20.3689 -2.3379e-18 -3.92119)
(20.7858 -2.27099e-18 -3.99951)
(21.0579 0 -4.05383)
(21.5073 4.27724e-18 -4.13797)
(21.7922 -4.14623e-18 -4.19507)
(22.2752 0 -4.28525)
(22.5693 -1.94742e-18 -4.34427)
(23.0923 0 -4.44207)
(23.3868 0 -4.50094)
(23.9595 3.53278e-18 -4.60888)
(24.2495 0 -4.66613)
(24.8743 0 -4.78503)
(25.1656 -3.19039e-18 -4.8417)
(25.8343 -6.16155e-18 -4.9693)
(26.1343 -2.97231e-18 -5.02784)
(26.8446 0 -5.16196)
(27.1356 0 -5.22111)
(27.9255 0 -5.36618)
(28.1297 0 -5.41384)
(29.0964 -4.93754e-18 -5.58362)
(29.048 -4.74412e-18 -5.59187)
(30.3528 0 -5.80571)
(29.7138 0 -5.71071)
(31.4844 0 -5.95048)
(29.4681 0 -5.50968)
(3.59736 2.07554e-21 -4.08957)
(3.90718 0 -3.7398)
(4.25431 2.037e-21 -3.41954)
(4.63685 0 -3.13972)
(5.03739 1.97749e-21 -2.90409)
(5.44236 0 -2.71173)
(5.84262 -2.16984e-21 -2.55873)
(6.23187 4.67825e-21 -2.43964)
(6.60625 9.63241e-21 -2.34869)
(6.96385 -6.98169e-23 -2.28051)
(7.30411 0 -2.23049)
(7.62733 0 -2.19483)
(7.93425 0 -2.17049)
(8.22585 0 -2.15506)
(8.50321 0 -2.14667)
(8.76738 0 -2.14386)
(9.01938 1.22382e-20 -2.14548)
(9.26016 -1.24513e-20 -2.15065)
(9.49056 1.26572e-20 -2.15864)
(9.71138 0 -2.16891)
(9.92331 0 -2.18098)
(10.127 1.30765e-20 -2.19452)
(10.3231 1.31805e-20 -2.20922)
(10.5119 1.32654e-20 -2.22488)
(10.6942 0 -2.24128)
(10.8701 -2.68175e-20 -2.25829)
(11.0403 -5.37163e-20 -2.27576)
(11.2049 2.68688e-20 -2.29358)
(11.3644 0 -2.31167)
(11.519 0 -2.32995)
(11.669 0 -2.34838)
(11.8148 2.67444e-20 -2.3669)
(11.9566 0 -2.38545)
(12.0945 0 -2.40404)
(12.2289 5.28185e-20 -2.42263)
(12.3599 5.25988e-20 -2.44119)
(12.4878 0 -2.45976)
(12.6128 5.18147e-20 -2.47827)
(12.7352 -1.02902e-19 -2.49678)
(12.855 -5.10574e-20 -2.51527)
(12.9725 5.06027e-20 -2.53371)
(13.0881 0 -2.55217)
(13.2017 0 -2.5706)
(13.3138 0 -2.58906)
(13.4245 9.70125e-20 -2.60754)
(13.534 0 -2.62609)
(13.6426 -9.48527e-20 -2.64472)
(13.7505 -9.35843e-20 -2.66347)
(13.858 0 -2.68236)
(13.9653 9.12454e-20 -2.70141)
(14.0727 0 -2.72066)
(14.1804 0 -2.74013)
(14.2887 1.74747e-19 -2.75988)
(14.3978 -1.32714e-22 -2.77991)
(14.508 -1.6954e-19 -2.8003)
(14.6195 0 -2.82102)
(14.7326 0 -2.84216)
(14.8475 1.61691e-19 -2.86371)
(14.9644 0 -2.88574)
(15.0835 -3.12609e-19 -2.90825)
(15.2052 0 -2.93129)
(15.3295 0 -2.95488)
(15.4567 -5.92591e-19 -2.97907)
(15.587 -5.81811e-19 -3.00387)
(15.7205 -2.85434e-19 -3.02932)
(15.8574 0 -3.05542)
(15.9979 0 -3.08223)
(16.142 -2.6938e-19 -3.10975)
(16.2903 -5.28132e-19 -3.13805)
(16.4423 0 -3.16711)
(16.599 -5.07288e-19 -3.19707)
(16.7596 4.96851e-19 -3.22784)
(16.9259 -4.86468e-19 -3.25971)
(17.0962 4.75984e-19 -3.29244)
(17.2734 -4.65936e-19 -3.32651)
(17.4546 0 -3.36144)
(17.6447 0 -3.39806)
(17.8379 8.71473e-19 -3.43542)
(18.0431 -1.70304e-18 -3.47496)
(18.2493 0 -3.51491)
(18.4718 0 -3.55774)
(18.6913 7.93384e-19 -3.6003)
(18.9336 0 -3.64685)
(19.1659 0 -3.69194)
(19.4309 -7.36851e-19 -3.74268)
(19.6745 -1.43649e-18 -3.79007)
(19.9657 0 -3.8456)
(20.2185 -1.36453e-18 -3.89496)
(20.5397 0 -3.95597)
(20.7994 1.29394e-18 -4.00691)
(21.1548 -1.25908e-18 -4.07411)
(21.4192 1.22517e-18 -4.12631)
(21.8118 1.19135e-18 -4.20024)
(22.0804 5.33527e-22 -4.25363)
(22.5112 -2.25157e-18 -4.33448)
(22.786 0 -4.38951)
(23.2538 2.12328e-18 -4.47701)
(23.5394 -2.05999e-18 -4.53455)
(24.0413 -1.99981e-18 -4.6281)
(24.3407 3.87639e-18 -4.68868)
(24.8768 0 -4.78828)
(25.1865 -1.82006e-18 -4.85107)
(25.7638 0 -4.95845)
(26.0735 0 -5.02096)
(26.7035 -3.30216e-18 -5.13921)
(27.0056 0 -5.19933)
(27.6928 0 -5.32974)
(27.9911 2.98046e-18 -5.38812)
(28.7289 4.75037e-22 -5.52851)
(29.028 4.49855e-22 -5.58742)
(29.8187 2.67922e-18 -5.73591)
(30.0922 0 -5.79326)
(30.9843 -4.97695e-18 -5.95525)
(31.1458 -4.78872e-18 -5.99808)
(32.2388 4.61202e-18 -6.18675)
(32.1313 4.42995e-18 -6.18943)