/*--------------------------------*- C++ -*----------------------------------*\
| =========                 |                                                 |
| \\      /  F ield         | OpenFOAM: The Open Source CFD Toolbox           |
|  \\    /   O peration     | Version:  2412                                  |
|   \\  /    A nd           | Website:  www.openfoam.com                      |
|    \\/     M anipulation  |                                                 |
\*---------------------------------------------------------------------------*/
FoamFile
{
    version     2.0;
    format      ascii;
    arch        "LSB;label=32;scalar=64";
    class       volVectorField;
    location    "1.705";
    object      ddtCorrDdt0(U);
}
// * * * * * * * * * * * * * * * * * * * * * * * * * * * * * * * * * * * * * //

dimensions      [0 1 -2 0 0 0 0];

internalField   nonuniform List<vector> 
12600
(
(0.788731 -7.39505e-22 0.0770522)
(0.891854 -1.08544e-20 -0.00279971)
(0.71717 5.67707e-22 -0.0638798)
(0.535634 0 -0.0784531)
(0.393648 5.10563e-21 -0.0686797)
(0.295333 4.58868e-21 -0.0571455)
(0.213654 0 -0.0488081)
(0.141155 0 -0.0486668)
(0.0847312 -1.87054e-20 -0.0433054)
(0.0429203 0 -0.0346888)
(0.0111074 6.1672e-21 -0.0251982)
(-0.0115913 4.40248e-21 -0.0156969)
(-0.0247717 -2.93464e-21 -0.00670626)
(-0.0299177 0 0.00117149)
(-0.0303354 -1.46797e-21 0.00731345)
(-0.0288804 0 0.0112429)
(-0.0262279 6.0525e-21 0.0127353)
(-0.0209936 0 0.0118382)
(-0.0111411 -5.76981e-21 0.0088294)
(0.00455281 -6.91658e-21 0.00414513)
(0.0258074 8.18602e-21 -0.00169722)
(0.0510204 3.24601e-23 -0.00816403)
(0.0779139 0 -0.0147464)
(0.104158 -2.08446e-20 -0.0209769)
(0.127726 0 -0.0264356)
(0.147001 0 -0.0307624)
(0.160788 -2.23943e-20 -0.0336811)
(0.168339 0 -0.0350308)
(0.169411 -4.63084e-22 -0.0347874)
(0.164276 2.24139e-20 -0.0330601)
(0.153657 2.27407e-20 -0.030065)
(0.138596 2.31931e-20 -0.0260876)
(0.120312 -2.3765e-20 -0.0214488)
(0.100057 -4.88675e-20 -0.0164735)
(0.0790136 -5.0334e-20 -0.0114698)
(0.0582148 5.19127e-20 -0.00671056)
(0.0385218 0 -0.00242416)
(0.0205919 -5.46948e-20 0.0012186)
(0.00490508 0 0.00410425)
(-0.00826202 5.64827e-20 0.00618684)
(-0.0187811 0 0.00747651)
(-0.026699 2.26128e-22 0.00804331)
(-0.0321329 0 0.00798987)
(-0.0353282 1.65239e-22 0.00745763)
(-0.0365067 9.99648e-20 0.00658576)
(-0.0359663 -9.32793e-20 0.00552361)
(-0.0338678 8.54338e-20 0.00437477)
(-0.0304822 0 0.00324079)
(-0.0259561 0 0.00216108)
(-0.0207114 6.0462e-20 0.00119698)
(-0.0150308 1.05335e-19 0.000346596)
(-0.00959594 9.10109e-20 -0.000327257)
(-0.00478043 1.40591e-22 -0.000832343)
(-0.00135975 6.63595e-20 -0.00108149)
(0.000564865 0 -0.00110548)
(0.000470909 -4.6419e-20 -0.000824602)
(-0.00112249 -3.84961e-20 -0.00034741)
(-0.00434734 -3.23938e-20 0.000363771)
(-0.00801114 0 0.00109323)
(-0.0120964 0 0.00186053)
(-0.0150213 0 0.00237716)
(-0.0171446 3.23282e-20 0.00273163)
(-0.0168831 0 0.00262993)
(-0.0154633 0 0.00232155)
(-0.0114316 -1.23289e-20 0.00152991)
(-0.00701009 0 0.000686795)
(-0.000581235 0 -0.000528848)
(0.00476735 0 -0.0015298)
(0.0112508 -4.3628e-20 -0.00276014)
(0.0151218 4.93357e-20 -0.00350263)
(0.0197299 5.65338e-20 -0.00440619)
(0.0208203 -1.23853e-23 -0.00463437)
(0.0231918 -6.96778e-20 -0.00509024)
(0.0218758 0 -0.00478152)
(0.0232188 8.35037e-20 -0.00490076)
(0.0212475 0 -0.00428201)
(0.0238039 0 -0.0044542)
(0.0233361 0 -0.00402833)
(0.0284124 -2.45543e-22 -0.00474517)
(0.0290987 8.37576e-20 -0.00479708)
(0.0343747 6.56138e-20 -0.00593929)
(0.033059 -5.2812e-20 -0.00597332)
(0.0350013 -6.59159e-20 -0.00666415)
(0.0308573 0 -0.00611592)
(0.0284168 0 -0.00581221)
(0.0266168 2.08664e-19 -0.00546755)
(0.0209784 -3.41636e-19 -0.0041865)
(0.0306297 1.78667e-19 -0.00573933)
(0.0201426 8.62086e-21 -0.00353723)
(0.037275 0 -0.00688459)
(0.0408385 5.79482e-20 -0.00752974)
(0.00443844 -6.40991e-21 -0.000446259)
(0.151489 -1.79908e-20 -0.0290018)
(-0.262894 4.10049e-19 0.0527383)
(0.626075 0 -0.119165)
(-0.530028 0 0.104889)
(0.560921 0 -0.113164)
(-0.0118498 0 0.00405577)
(-1.07307 0 0.186191)
(3.00122 0 -0.5364)
(-5.94773 6.65746e-18 1.1224)
(6.77847 -3.15996e-17 -1.29743)
(-3.60387 4.18561e-17 0.750529)
(-2.7096 0 0.401728)
(9.57259 0 -1.80079)
(-17.0878 0 3.30249)
(12.8613 1.92758e-17 -2.48763)
(-6.96938 3.00794e-17 1.23782)
(1.9032 3.10513e-16 -0.204823)
(8.4825 0 -1.52447)
(-24.6069 -1.19182e-15 4.4762)
(21.1022 0 -3.84473)
(-4.65588 6.73203e-17 0.998043)
(-11.0024 3.83347e-17 1.85674)
(17.8394 -1.4318e-16 -3.51726)
(0.300718 2.8917e-17 0.0428135)
(1.73294 -3.10981e-17 -0.3666)
(-3.50896 4.85169e-20 0.676505)
(-3.1917 5.07206e-18 0.571346)
(2.67547 0 -0.531464)
(0.984016 7.44776e-22 0.121712)
(1.13738 0 -0.0269824)
(1.18392 -5.81835e-22 -0.0977834)
(1.12255 0 -0.113435)
(0.975217 -5.17683e-21 -0.11384)
(0.81433 -5.62567e-21 -0.115426)
(0.662653 -3.41221e-21 -0.116403)
(0.524865 0 -0.119419)
(0.408261 9.69161e-22 -0.111271)
(0.305106 -7.44644e-21 -0.0954866)
(0.213369 6.18927e-21 -0.0767364)
(0.135673 4.81506e-21 -0.0575056)
(0.0750145 -3.53086e-21 -0.0391911)
(0.0313908 2.51472e-21 -0.0227917)
(0.00207596 3.40567e-21 -0.00918709)
(-0.0156422 0 0.00082122)
(-0.0224502 7.8854e-22 0.006634)
(-0.0172329 5.1306e-21 0.00801676)
(0.00121984 5.85246e-21 0.00517626)
(0.032584 0 -0.00128945)
(0.0744565 0 -0.0105287)
(0.122897 9.30272e-21 -0.0215817)
(0.173409 0 -0.0334697)
(0.221713 1.04779e-20 -0.0452239)
(0.264104 -2.07799e-20 -0.0559049)
(0.297545 0 -0.0646562)
(0.319747 2.12744e-20 -0.0707931)
(0.32934 0 -0.0738936)
(0.326046 -2.24829e-20 -0.073845)
(0.310683 -4.4662e-20 -0.0708158)
(0.284967 -4.54286e-20 -0.0651861)
(0.2512 -2.34763e-20 -0.0574736)
(0.211976 2.40483e-20 -0.0482793)
(0.169915 9.83987e-20 -0.0382338)
(0.127502 1.01554e-19 -0.0279645)
(0.0869258 0 -0.0180515)
(0.0500246 0 -0.00900609)
(0.018184 -1.66759e-22 -0.00122917)
(-0.00762908 0 0.00498785)
(-0.0269683 -5.70216e-20 0.00950351)
(-0.0397833 0 0.0122931)
(-0.0465175 -1.1324e-19 0.0134801)
(-0.0478413 0 0.0132613)
(-0.04482 -1.06489e-19 0.0119528)
(-0.0384795 0 0.00986386)
(-0.0300663 9.39264e-20 0.00736402)
(-0.0204058 0 0.00470376)
(-0.0105193 0 0.00217407)
(-0.000833142 -6.91587e-20 -0.00011805)
(0.00778573 0 -0.00198172)
(0.0152673 0 -0.00346143)
(0.0207625 0 -0.00441575)
(0.0245568 -7.83056e-20 -0.00498876)
(0.0257965 -1.33387e-19 -0.0050203)
(0.0253489 0 -0.00474498)
(0.0223997 0 -0.00396013)
(0.0185745 3.92462e-20 -0.00303075)
(0.0129822 3.23924e-20 -0.00171737)
(0.00809538 0 -0.000575421)
(0.00263681 0 0.000703108)
(-0.000127977 0 0.00136655)
(-0.00243924 0 0.0019189)
(-0.000425935 2.51754e-20 0.00147429)
(0.00199722 -1.65877e-20 0.000912436)
(0.00932768 1.30136e-20 -0.000770879)
(0.0156027 0 -0.00223548)
(0.0264837 0 -0.00472935)
(0.0338069 0 -0.00643753)
(0.0451214 7.40166e-23 -0.00902492)
(0.0501149 -4.88638e-20 -0.0102199)
(0.0593075 -5.59421e-20 -0.0123204)
(0.060203 1.21089e-19 -0.0125708)
(0.0668514 1.73205e-24 -0.0140071)
(0.0637534 -7.43417e-20 -0.0132259)
(0.068837 -8.23159e-20 -0.0141036)
(0.0631206 0 -0.0125292)
(0.0690968 0 -0.0134179)
(0.0637504 0 -0.0118738)
(0.0733011 1.17857e-19 -0.0136798)
(0.0694281 0 -0.0128168)
(0.0812763 0 -0.0156065)
(0.0768916 5.16878e-20 -0.0150014)
(0.087112 6.44438e-20 -0.0175585)
(0.082607 0 -0.0165979)
(0.0864667 0 -0.0175041)
(0.0900759 0 -0.017641)
(0.0801659 3.34111e-19 -0.0154299)
(0.108021 1.42615e-21 -0.0200373)
(0.0725165 1.02611e-20 -0.0128871)
(0.116703 2.75959e-21 -0.0220012)
(0.111527 -5.63219e-20 -0.0201956)
(0.0107818 -7.71694e-21 -0.00300747)
(0.408964 3.67067e-20 -0.0763085)
(-0.733102 0 0.134159)
(1.77064 0 -0.342549)
(-1.56472 0 0.307813)
(1.67118 0 -0.338654)
(-0.179105 -2.24137e-18 0.0679241)
(-2.65783 0 0.443073)
(7.98484 0 -1.41708)
(-16.5386 6.46233e-18 3.14541)
(19.1863 1.5143e-17 -3.7798)
(-12.4839 -8.00878e-17 2.67617)
(-4.54309 -8.27409e-18 0.590494)
(26.5302 0 -4.77864)
(-48.8792 0 9.47409)
(36.2972 0 -7.32259)
(-21.836 -1.41873e-17 4.34144)
(7.40503 -2.95517e-16 -1.43689)
(23.4619 0 -3.98248)
(-65.2314 2.26539e-15 12.2425)
(56.5947 -3.10598e-16 -11.1569)
(-21.9687 -1.2775e-16 4.74873)
(-22.7798 0 3.96631)
(54.1641 0 -10.7027)
(-3.08407 2.75916e-17 0.907428)
(6.23808 0 -1.18882)
(-10.8453 9.03188e-18 2.16908)
(-8.16915 -4.62031e-18 1.45807)
(8.56697 0 -1.74456)
(0.852218 0 -0.0278279)
(0.956881 0 -0.0904424)
(1.05614 -2.22045e-21 -0.0791077)
(1.08143 0 -0.0534402)
(1.01983 0 -0.0498587)
(0.908796 3.11592e-21 -0.0745289)
(0.781106 3.23078e-21 -0.105028)
(0.656477 0 -0.122497)
(0.541435 4.58125e-22 -0.125563)
(0.433164 7.05347e-21 -0.117979)
(0.332533 -1.17811e-20 -0.105056)
(0.244041 -4.56181e-21 -0.0909764)
(0.172364 -2.28697e-22 -0.0775991)
(0.118794 -2.38284e-21 -0.0649607)
(0.081075 -1.81552e-21 -0.0527093)
(0.0562772 1.91434e-21 -0.0411428)
(0.0433487 -3.88827e-21 -0.0312419)
(0.0432699 -4.86222e-21 -0.0241022)
(0.0573304 0 -0.0204104)
(0.0852804 0 -0.0202776)
(0.124645 8.015e-21 -0.0233723)
(0.171303 8.62472e-21 -0.0291222)
(0.220577 0 -0.0368098)
(0.268023 0 -0.0455683)
(0.309732 1.969e-20 -0.0543982)
(0.342374 0 -0.0622778)
(0.363341 -3.96516e-20 -0.0683401)
(0.371036 1.96643e-20 -0.0720214)
(0.365149 0 -0.0731023)
(0.346657 2.08071e-20 -0.0716289)
(0.317541 2.12244e-20 -0.0678113)
(0.28036 0 -0.0619628)
(0.237915 -2.21784e-20 -0.054489)
(0.192966 -4.63783e-20 -0.0458656)
(0.1481 -1.47729e-22 -0.0366316)
(0.105572 0 -0.0273383)
(0.067279 0 -0.0185276)
(0.0346278 5.24855e-20 -0.0106624)
(0.00861105 0 -0.00413205)
(-0.0103543 0 0.000828251)
(-0.0222364 0 0.00408561)
(-0.0275832 0 0.00569185)
(-0.0271351 0 0.00577143)
(-0.0221506 0 0.00463956)
(-0.0137505 0 0.00259082)
(-0.00341131 -8.92563e-20 5.74965e-05)
(0.00802925 8.16701e-20 -0.00269509)
(0.0193319 0 -0.00526045)
(0.0301743 6.54307e-20 -0.0075158)
(0.0394601 0 -0.00915361)
(0.0473847 0 -0.0102893)
(0.0528386 -8.67503e-20 -0.0107168)
(0.056573 0 -0.0107776)
(0.0573846 6.32189e-20 -0.0102744)
(0.0568181 -5.36102e-20 -0.00971452)
(0.0534685 0 -0.00875979)
(0.0498219 -3.70962e-20 -0.0080337)
(0.0440045 0 -0.00697416)
(0.0396254 0 -0.00639519)
(0.0339734 0 -0.00549811)
(0.0319451 -3.86697e-20 -0.00540858)
(0.0293399 -3.21686e-20 -0.00501819)
(0.0323494 6.3163e-22 -0.00581354)
(0.0343569 3.18865e-20 -0.00618849)
(0.0430446 4.74725e-22 -0.00803006)
(0.0487595 0 -0.00907017)
(0.0614392 0 -0.0117286)
(0.0679209 -3.06251e-20 -0.0129348)
(0.0813958 1.08378e-22 -0.0158532)
(0.0850333 0 -0.0165714)
(0.096835 0 -0.0193158)
(0.0959709 -5.71217e-20 -0.019208)
(0.106005 -1.09641e-22 -0.0216615)
(0.100674 -8.87225e-23 -0.0205144)
(0.109739 0 -0.0225585)
(0.100829 0 -0.0202592)
(0.111291 -1.55456e-19 -0.0221846)
(0.102017 1.34174e-19 -0.01935)
(0.117097 0 -0.0220266)
(0.109091 0 -0.019483)
(0.127815 0 -0.0234515)
(0.119811 0 -0.0216047)
(0.137902 0 -0.0263694)
(0.131806 0 -0.0253291)
(0.14166 0 -0.028829)
(0.149371 0 -0.0300008)
(0.135745 -3.16198e-19 -0.0282393)
(0.180694 -8.33304e-20 -0.0355617)
(0.121233 -9.6436e-21 -0.0233076)
(0.193648 -2.59334e-21 -0.0376875)
(0.176995 5.30141e-20 -0.0296738)
(0.0245252 7.24787e-21 -0.00924273)
(0.646603 -1.81317e-20 -0.108906)
(-1.14413 0 0.191821)
(2.82664 0 -0.536111)
(-2.55586 0 0.52046)
(2.77451 0 -0.578038)
(-0.455355 2.10278e-18 0.204319)
(-3.76214 0 0.503448)
(12.2192 0 -1.973)
(-25.8912 -6.05924e-18 4.7647)
(30.6934 0 -6.05944)
(-22.1524 3.75204e-17 5.05964)
(-3.48042 7.75386e-18 -0.222904)
(40.9677 0 -6.68305)
(-77.6194 0 14.8259)
(57.1708 0 -11.8458)
(-39.2853 -1.28816e-17 8.35185)
(16.3932 0 -4.06433)
(36.2377 6.03957e-16 -5.364)
(-98.2055 8.40626e-19 17.9399)
(87.2242 2.90686e-16 -17.6395)
(-46.5196 1.19741e-16 10.9312)
(-24.9438 0 3.10422)
(89.764 1.27845e-16 -17.7693)
(-10.0743 -2.58087e-17 2.9926)
(11.5723 -2.74907e-17 -2.15736)
(-18.6596 0 3.8866)
(-11.697 4.32018e-18 1.83032)
(14.9646 0 -3.18593)
(0.782005 0 -0.0449187)
(0.796793 0 -0.102677)
(0.832096 2.09943e-21 -0.0822089)
(0.84989 0 -0.0393514)
(0.833171 -1.7662e-21 -0.0151931)
(0.776078 4.21737e-21 -0.0269288)
(0.695138 0 -0.0585314)
(0.604716 -6.44999e-21 -0.0873647)
(0.512114 6.9284e-21 -0.103304)
(0.420055 6.32126e-21 -0.106017)
(0.331345 5.59577e-21 -0.101339)
(0.250805 -4.52721e-21 -0.0953712)
(0.184016 3.38009e-21 -0.0904038)
(0.133874 -5.15875e-21 -0.0850934)
(0.0992388 0 -0.0774044)
(0.0771965 -3.74105e-21 -0.0669795)
(0.0661098 0 -0.0553126)
(0.0665554 0 -0.0445455)
(0.0799315 0 -0.0363233)
(0.106419 6.90637e-21 -0.0314)
(0.143958 -1.7756e-24 -0.0298602)
(0.188689 -7.63779e-23 -0.0314665)
(0.236111 8.4344e-21 -0.0357818)
(0.281954 0 -0.0420982)
(0.322435 0 -0.0494169)
(0.354227 0 -0.0566109)
(0.374607 3.6328e-20 -0.0626989)
(0.381853 -5.41504e-22 -0.0670532)
(0.375625 0 -0.0694196)
(0.356985 0 -0.0697666)
(0.328043 0 -0.0681443)
(0.291439 0 -0.0646418)
(0.249959 4.1726e-20 -0.0594327)
(0.206263 0 -0.0527947)
(0.162814 -4.52182e-20 -0.0451348)
(0.121736 0 -0.0369337)
(0.0848318 0 -0.0287257)
(0.0534256 -5.00876e-20 -0.0210059)
(0.0284889 0 -0.0142415)
(0.0104182 0 -0.00875287)
(-0.000706298 5.20107e-20 -0.00478518)
(-0.00542979 -1.02926e-19 -0.00237416)
(-0.00441496 0 -0.00149503)
(0.00105298 -9.63901e-20 -0.00187367)
(0.00994306 0 -0.00328187)
(0.0207119 1.68924e-19 -0.00528334)
(0.0326538 1.75246e-22 -0.00765705)
(0.0444048 0 -0.00993234)
(0.0558166 0 -0.0120109)
(0.0655708 -5.43872e-20 -0.0134856)
(0.0741164 -9.47395e-20 -0.0145343)
(0.0800084 1.63892e-19 -0.0148434)
(0.0843959 0 -0.0148872)
(0.0855997 6.01545e-20 -0.014346)
(0.0857619 5.0606e-20 -0.0139204)
(0.0827626 4.28902e-20 -0.013073)
(0.0799228 3.58971e-20 -0.0126612)
(0.0743112 0 -0.0118095)
(0.0707322 0 -0.0116375)
(0.0650079 4.38067e-20 -0.0109139)
(0.0637823 7.36203e-20 -0.0112043)
(0.0608499 3.03405e-20 -0.0108373)
(0.0648547 5.04169e-22 -0.011932)
(0.0663838 -1.5297e-20 -0.012151)
(0.0764443 -6.46299e-21 -0.0142632)
(0.0815351 0 -0.0150361)
(0.0960307 0 -0.0180534)
(0.101564 2.88604e-20 -0.0189438)
(0.117202 7.63306e-20 -0.0223822)
(0.119348 0 -0.0227668)
(0.133784 4.99546e-20 -0.0262769)
(0.131001 5.41069e-20 -0.0258442)
(0.144443 6.12021e-20 -0.0293056)
(0.13667 1.32388e-19 -0.0276843)
(0.149768 0 -0.0308)
(0.137489 0 -0.0276666)
(0.152612 1.46287e-19 -0.030666)
(0.139259 -2.52862e-19 -0.0266459)
(0.16007 -1.05405e-19 -0.0305006)
(0.147661 0 -0.0265686)
(0.173409 0 -0.0320667)
(0.161309 0 -0.0290039)
(0.187386 0 -0.0358985)
(0.17891 0 -0.0341533)
(0.195004 0 -0.0398563)
(0.205565 -1.80961e-19 -0.0411078)
(0.18887 -7.66961e-22 -0.0397858)
(0.249271 8.14281e-20 -0.0491622)
(0.166747 0 -0.0326013)
(0.267906 -3.47611e-22 -0.0531367)
(0.23666 -2.4852e-20 -0.0377823)
(0.0457164 0 -0.0200789)
(0.86355 -1.88738e-20 -0.133516)
(-1.49155 -3.13959e-19 0.239959)
(3.78583 0 -0.707389)
(-3.49266 0 0.72392)
(3.85229 0 -0.837769)
(-0.808922 1.95135e-18 0.381365)
(-4.42734 0 0.429741)
(15.7157 0 -2.32185)
(-33.9623 -5.80784e-18 6.09191)
(41.1162 -1.34304e-17 -8.18262)
(-32.2894 0 7.5639)
(0.148391 0 -1.77593)
(52.8615 0 -7.88729)
(-102.692 0 19.5348)
(75.0474 0 -16.0477)
(-59.0181 -6.53087e-21 12.8761)
(28.4195 0 -6.96946)
(46.7589 -5.65163e-16 -5.90291)
(-122.695 -9.93108e-16 22.0522)
(112.579 0 -23.3187)
(-77.4658 -4.45366e-20 18.3936)
(-17.9399 0 -0.12887)
(123.58 4.53525e-19 -24.3838)
(-20.0973 0 5.91589)
(17.7703 2.57028e-17 -3.28818)
(-26.9784 0 5.79321)
(-13.8305 3.82122e-18 1.78401)
(21.7063 0 -4.78307)
(0.744333 0 -0.00420529)
(0.714941 0 -0.0760374)
(0.696239 0 -0.0707978)
(0.677157 0 -0.0327573)
(0.660421 1.66713e-21 -0.00734525)
(0.626507 2.40663e-22 -0.00780885)
(0.572177 0 -0.0289167)
(0.504633 6.08785e-21 -0.0573364)
(0.430635 0 -0.078905)
(0.354394 -1.16469e-20 -0.0875063)
(0.278911 0 -0.087787)
(0.207755 4.27398e-21 -0.0874779)
(0.146244 0 -0.0896489)
(0.0991609 4.87069e-21 -0.0915276)
(0.0677616 -1.96274e-21 -0.0889145)
(0.05011 3.6914e-21 -0.0804001)
(0.0439833 -4.17087e-21 -0.0679263)
(0.0489172 -4.95035e-21 -0.0547948)
(0.0657961 0 -0.0436578)
(0.0949615 -6.52158e-21 -0.0357902)
(0.134732 -7.15707e-21 -0.0314651)
(0.181451 -1.5188e-20 -0.0305769)
(0.230649 -7.96436e-21 -0.0328644)
(0.278115 0 -0.0377559)
(0.320199 0 -0.0442618)
(0.353657 0 -0.0511682)
(0.375698 -1.68929e-20 -0.0574165)
(0.384443 -1.70479e-20 -0.0623817)
(0.379447 0 -0.0658615)
(0.361804 0 -0.0678278)
(0.33377 1.78945e-20 -0.0682259)
(0.298128 0 -0.0669474)
(0.257731 -1.48929e-22 -0.0639418)
(0.215203 -4.07003e-20 -0.0592868)
(0.172934 4.25661e-20 -0.0532514)
(0.132967 0 -0.0462338)
(0.0970673 0 -0.0387447)
(0.0665241 4.72738e-20 -0.0312888)
(0.0423293 0 -0.0243889)
(0.0248862 0 -0.0184281)
(0.0143476 -4.90805e-20 -0.013747)
(0.0101764 9.71216e-20 -0.0104568)
(0.0117906 0 -0.00863223)
(0.0178622 9.09424e-20 -0.00804667)
(0.0274392 0 -0.00856084)
(0.0388756 -7.98049e-20 -0.00975896)
(0.0515768 -7.29425e-20 -0.0115006)
(0.0640141 0 -0.013276)
(0.0762118 -5.8421e-20 -0.0150445)
(0.0866029 5.12902e-20 -0.0163087)
(0.0959123 1.78723e-19 -0.0173238)
(0.102339 -7.72959e-20 -0.0176474)
(0.10747 6.65111e-20 -0.0178779)
(0.109121 1.82524e-22 -0.0175239)
(0.110082 0 -0.0174637)
(0.107475 -4.04257e-20 -0.0169074)
(0.105529 -3.38311e-20 -0.016957)
(0.100199 2.88619e-20 -0.0163905)
(0.0975821 -2.44195e-20 -0.0166838)
(0.0919482 -4.12722e-20 -0.0161506)
(0.0918043 -3.49905e-20 -0.0168651)
(0.0888064 2.95419e-20 -0.0165463)
(0.0941873 -2.21534e-20 -0.0180094)
(0.0955531 0 -0.0180984)
(0.107412 0 -0.0205354)
(0.112176 7.23577e-22 -0.0210069)
(0.128889 0 -0.0243687)
(0.133693 0 -0.0248153)
(0.151851 -3.58083e-20 -0.0287017)
(0.152641 0 -0.028576)
(0.170015 -4.69997e-20 -0.0327899)
(0.165308 -1.02004e-19 -0.0318578)
(0.182333 0 -0.036308)
(0.171919 -6.23741e-20 -0.0340617)
(0.189122 0 -0.0383179)
(0.17318 0 -0.0342898)
(0.193062 -1.38374e-19 -0.0385968)
(0.175296 1.19011e-19 -0.033442)
(0.201979 -2.69943e-22 -0.0388277)
(0.184779 0 -0.0335423)
(0.217738 0 -0.0408804)
(0.201036 0 -0.0364036)
(0.235314 -5.24598e-20 -0.0455606)
(0.223637 6.21109e-20 -0.0425586)
(0.246305 0 -0.0505961)
(0.258366 3.39587e-19 -0.0511378)
(0.239354 1.40561e-19 -0.0507813)
(0.313405 -1.54304e-19 -0.0613174)
(0.208961 -1.30614e-20 -0.0412546)
(0.339165 -9.04408e-22 -0.0684474)
(0.290257 0 -0.043633)
(0.074126 0 -0.0357448)
(1.05858 1.76964e-20 -0.146841)
(-1.77997 2.94354e-19 0.259513)
(4.64321 -6.29441e-19 -0.849392)
(-4.366 0 0.901832)
(4.89355 0 -1.09756)
(-1.20911 -1.8283e-18 0.606969)
(-4.72664 2.51915e-18 0.215461)
(18.5353 0 -2.41893)
(-40.7848 5.43918e-18 7.05612)
(50.3148 1.25761e-17 -10.0281)
(-42.5284 0 10.2413)
(5.77173 0 -4.10682)
(62.4092 0 -8.23108)
(-123.709 0 23.3421)
(89.8102 0 -19.7093)
(-80.3616 1.12877e-17 17.8164)
(42.1105 0 -11.8207)
(54.854 0 -5.4423)
(-138.329 0 24.1517)
(132.948 -2.53142e-16 -27.8738)
(-113.315 -5.23996e-17 27.0919)
(-3.44949 0 -5.70384)
(154.671 -1.12197e-16 -30.2275)
(-31.9887 0 9.62355)
(24.7598 2.38495e-17 -4.60621)
(-35.7799 0 7.88316)
(-14.7618 -3.57111e-18 1.3227)
(28.5941 0 -6.51257)
(0.706901 -2.1144e-21 0.0374689)
(0.676692 -2.58358e-21 -0.0306094)
(0.644941 2.17449e-21 -0.0419226)
(0.600114 1.76161e-21 -0.020949)
(0.567727 0 -0.00375114)
(0.534917 -2.1226e-21 -0.00323123)
(0.489591 0 -0.0179572)
(0.431624 5.68759e-21 -0.0413239)
(0.366675 5.4318e-21 -0.0633781)
(0.29999 1.03055e-20 -0.0749038)
(0.233988 -4.30894e-21 -0.0776539)
(0.169913 3.5606e-21 -0.0802537)
(0.111014 0 -0.0874021)
(0.0629504 0 -0.0955917)
(0.0301163 1.85042e-21 -0.0981396)
(0.0130878 -3.05979e-23 -0.0918355)
(0.00991646 2.93319e-23 -0.078658)
(0.0188496 1.46049e-23 -0.0631451)
(0.039499 0 -0.0492123)
(0.0718384 0 -0.03877)
(0.114451 0 -0.0321796)
(0.163886 1.41775e-20 -0.029297)
(0.215593 7.29534e-21 -0.0299463)
(0.265276 0 -0.0336954)
(0.309419 0 -0.0395898)
(0.345005 1.51116e-20 -0.0463229)
(0.369301 0 -0.0527376)
(0.380244 0 -0.0582124)
(0.377143 0 -0.062635)
(0.360983 0 -0.0660335)
(0.334111 -1.79201e-22 -0.0682856)
(0.2995 0 -0.069097)
(0.26016 -7.78921e-23 -0.0681876)
(0.218749 3.83661e-20 -0.0654254)
(0.177613 3.07622e-23 -0.0609377)
(0.138722 0 -0.0550414)
(0.103817 0 -0.0482249)
(0.0741572 0 -0.0410003)
(0.0507619 0 -0.0339432)
(0.0340363 0 -0.0274922)
(0.0242105 0 -0.0220794)
(0.0207497 0 -0.0178835)
(0.0231593 -9.02469e-20 -0.0150779)
(0.0300542 -8.65275e-20 -0.0134789)
(0.040562 0 -0.013043)
(0.0529026 -7.56857e-20 -0.013376)
(0.0665921 0 -0.0144323)
(0.0799041 0 -0.0156643)
(0.0930574 1.1013e-19 -0.0171051)
(0.10421 0 -0.0181632)
(0.114406 -8.418e-20 -0.0191866)
(0.121457 0 -0.0195878)
(0.127446 -1.25367e-19 -0.0201)
(0.129628 1.64904e-22 -0.0200282)
(0.131517 0 -0.0204378)
(0.129401 0 -0.0202449)
(0.128518 0 -0.0208196)
(0.123606 -5.46613e-20 -0.0205542)
(0.122187 4.62733e-20 -0.0213308)
(0.116834 3.99649e-20 -0.0209703)
(0.118078 3.3837e-20 -0.0221261)
(0.115231 -5.59266e-20 -0.0218518)
(0.122322 -2.14539e-20 -0.023738)
(0.123707 0 -0.0237223)
(0.13767 0 -0.0265706)
(0.1422 -2.62751e-22 -0.0267675)
(0.161376 0 -0.0305582)
(0.165438 0 -0.0305553)
(0.186327 -3.31285e-20 -0.0349579)
(0.185668 0 -0.0342831)
(0.206167 0 -0.0392613)
(0.199323 9.62248e-20 -0.0377519)
(0.220034 -5.48603e-20 -0.0432305)
(0.206606 0 -0.0402299)
(0.227982 0 -0.0456649)
(0.207942 0 -0.0406064)
(0.232716 1.29954e-19 -0.0463205)
(0.210061 0 -0.039923)
(0.242793 1.86726e-19 -0.0470112)
(0.220235 -6.5396e-20 -0.0402703)
(0.260607 0 -0.0496618)
(0.238559 0 -0.0435884)
(0.281238 4.92275e-20 -0.0551998)
(0.265279 -4.11011e-22 -0.0505378)
(0.294883 7.45841e-20 -0.0611259)
(0.306873 -1.59193e-19 -0.0602531)
(0.286487 1.32638e-19 -0.0612955)
(0.372224 7.30407e-20 -0.0721815)
(0.24747 1.22463e-20 -0.0491168)
(0.406938 -1.5884e-21 -0.0832584)
(0.337353 0 -0.0474248)
(0.109827 9.84709e-21 -0.0559703)
(1.23103 0 -0.150175)
(-2.01047 0 0.252278)
(5.39619 5.89667e-19 -0.962016)
(-5.16021 0 1.07592)
(5.88371 0 -1.36256)
(-1.63486 0 0.865327)
(-4.73259 -2.35873e-18 -0.119279)
(20.7436 0 -2.27152)
(-46.398 5.25807e-18 7.69092)
(58.173 0 -11.5893)
(-52.5283 0 12.9652)
(12.7418 0 -7.03553)
(69.8073 0 -7.6707)
(-140.389 0 26.2799)
(101.556 1.34709e-17 -22.8769)
(-102.437 1.0761e-17 22.9695)
(56.8762 2.2807e-16 -14.644)
(60.1824 0 -3.97885)
(-145.093 0 24.416)
(149.146 4.72635e-16 -31.4033)
(-151.847 0 36.4533)
(15.5453 2.14939e-17 -13.2154)
(181.876 0 -34.9247)
(-44.0015 -2.06911e-17 13.7131)
(32.4542 -2.22869e-17 -6.09954)
(-44.9251 0 10.188)
(-14.8288 -3.08916e-18 0.465052)
(35.4123 0 -8.33914)
(0.670839 1.99116e-21 0.0749903)
(0.651159 4.99026e-21 0.0173151)
(0.627373 -2.04814e-21 -0.00671845)
(0.574984 3.84434e-22 -0.00478058)
(0.531024 2.1294e-21 0.00130811)
(0.493243 0 -0.000858211)
(0.449577 0 -0.0137403)
(0.395497 -5.35557e-21 -0.0340812)
(0.334488 -9.88318e-21 -0.05501)
(0.272795 -4.65245e-22 -0.0684713)
(0.213131 4.057e-21 -0.0729233)
(0.154837 -3.35238e-21 -0.076528)
(0.0979981 2.27922e-21 -0.0861623)
(0.04705 0 -0.0991098)
(0.00867752 0 -0.106755)
(-0.0128757 -1.63003e-21 -0.103388)
(-0.0175078 7.22116e-21 -0.0901028)
(-0.007432 8.66286e-21 -0.0723331)
(0.015318 0 -0.0554902)
(0.0496215 0 -0.0424516)
(0.0940012 0 -0.0337399)
(0.145252 -6.62693e-23 -0.0290341)
(0.198736 -1.36628e-20 -0.0281357)
(0.2499 6.92248e-21 -0.0307793)
(0.295275 1.39751e-20 -0.0361161)
(0.332229 -2.82689e-20 -0.0427521)
(0.358333 1.41178e-20 -0.0493658)
(0.371427 1.42837e-20 -0.0552803)
(0.370442 1.4584e-20 -0.0604755)
(0.35602 0 -0.0650855)
(0.330438 -1.57147e-20 -0.0689718)
(0.296846 1.63473e-20 -0.0716781)
(0.258505 -1.7184e-20 -0.0726914)
(0.218201 -3.60812e-20 -0.0716557)
(0.178273 -7.56737e-20 -0.0685519)
(0.140606 0 -0.0636208)
(0.106887 0 -0.0573402)
(0.0783248 -4.25788e-20 -0.0502346)
(0.0559443 0 -0.0429369)
(0.0401248 4.42195e-20 -0.0359392)
(0.0311704 4.4301e-20 -0.0297645)
(0.0285428 0 -0.0246509)
(0.0318586 1.70205e-19 -0.0208682)
(0.039675 8.14278e-20 -0.0182643)
(0.0512249 0 -0.0168915)
(0.0645747 7.12173e-20 -0.0163681)
(0.079373 6.51335e-20 -0.0167529)
(0.0936624 0 -0.0174529)
(0.107893 -1.03764e-19 -0.0185902)
(0.11991 4.55867e-20 -0.0194688)
(0.131133 7.93638e-20 -0.0205502)
(0.138928 0 -0.0210832)
(0.145944 -1.24545e-22 -0.0219578)
(0.148788 -1.01224e-19 -0.0222423)
(0.151791 0 -0.0232136)
(0.150292 0 -0.0234462)
(0.150676 3.08506e-20 -0.0246147)
(0.14631 2.58517e-20 -0.0246708)
(0.146326 -4.40644e-20 -0.0259635)
(0.141386 -3.7568e-20 -0.0257589)
(0.144283 -3.18048e-20 -0.0273766)
(0.141699 2.64407e-20 -0.027123)
(0.150764 4.05416e-20 -0.0294723)
(0.152215 0 -0.0293397)
(0.168512 0 -0.0326681)
(0.17275 -5.70177e-22 -0.0325796)
(0.194567 0 -0.0368787)
(0.197725 0 -0.0363908)
(0.221505 3.11148e-20 -0.0413851)
(0.21915 0 -0.0400901)
(0.242917 -4.1595e-20 -0.0459018)
(0.233546 1.23639e-22 -0.0436916)
(0.258023 5.15034e-20 -0.0502468)
(0.241034 0 -0.0463062)
(0.266657 0 -0.0529722)
(0.241906 0 -0.0466797)
(0.271722 1.22741e-19 -0.0539138)
(0.243494 0 -0.0460759)
(0.282473 -8.76903e-20 -0.0550474)
(0.253756 1.22744e-19 -0.0466408)
(0.301762 0 -0.0583207)
(0.273378 0 -0.050367)
(0.324704 0 -0.064691)
(0.303171 -3.44561e-22 -0.0578907)
(0.340188 -6.99206e-20 -0.0713595)
(0.350398 -1.48691e-19 -0.0682886)
(0.329825 -1.24314e-19 -0.0713189)
(0.425271 7.06389e-20 -0.0815253)
(0.282224 0 -0.0561843)
(0.471124 2.56896e-21 -0.0976622)
(0.378087 0 -0.0489132)
(0.153273 -9.22307e-21 -0.0810517)
(1.37968 0 -0.142754)
(-2.18643 0 0.210361)
(6.04558 0 -1.04367)
(-5.86921 9.55148e-19 1.22587)
(6.81444 -1.08233e-18 -1.62896)
(-2.0701 0 1.15619)
(-4.51392 2.15313e-18 -0.560248)
(22.4104 1.07024e-18 -1.90026)
(-50.8615 -4.91984e-18 7.99786)
(64.6507 -1.12867e-17 -12.8261)
(-61.9581 0 15.6343)
(20.347 0 -10.4598)
(75.2045 0 -6.24936)
(-152.644 0 28.3007)
(110.604 -1.25964e-17 -25.5033)
(-123.986 1.91401e-19 28.0566)
(69.9219 -4.26813e-16 -22.8406)
(62.0633 0 -1.46763)
(-143.673 0 22.9023)
(162.5 -2.20551e-16 -33.9374)
(-189.965 0 45.8043)
(35.1514 -2.00862e-17 -22.4714)
(203.897 0 -37.6085)
(-53.9057 3.84678e-17 17.7587)
(40.8201 0 -7.75446)
(-54.1221 0 12.5952)
(-14.523 2.88581e-18 -0.700443)
(41.932 0 -10.216)
(0.636598 0 0.107595)
(0.625028 -2.40543e-21 0.0578495)
(0.611174 0 0.0264774)
(0.562487 -1.92279e-21 0.0147702)
(0.51559 -4.2225e-21 0.0105644)
(0.474573 0 0.00339744)
(0.430795 2.46098e-21 -0.0103012)
(0.37924 0 -0.0301111)
(0.321439 3.74559e-22 -0.0506426)
(0.262914 -7.42272e-21 -0.0655974)
(0.207829 0 -0.0718002)
(0.154963 0 -0.0755771)
(0.101782 -2.14362e-21 -0.0853549)
(0.049805 0 -0.100639)
(0.00562298 0 -0.112479)
(-0.0234624 0 -0.112804)
(-0.0338317 -3.33512e-21 -0.100781)
(-0.0263088 -4.02709e-21 -0.0817305)
(-0.00389341 -4.65059e-21 -0.0623397)
(0.030735 0 -0.0468165)
(0.0754835 0 -0.0361492)
(0.127339 -6.18339e-21 -0.0298065)
(0.181703 6.38937e-21 -0.0274262)
(0.233632 -6.51081e-21 -0.028924)
(0.279434 -1.31439e-20 -0.0336962)
(0.316848 2.6316e-20 -0.0403333)
(0.344042 -8.85874e-23 -0.0472744)
(0.359036 -1.34338e-20 -0.0536622)
(0.36037 -1.3716e-20 -0.0595206)
(0.348093 0 -0.0651336)
(0.324117 0 -0.070425)
(0.291626 -1.53735e-20 -0.0748288)
(0.254194 0 -0.0776083)
(0.21489 3.39303e-20 -0.0781609)
(0.176158 3.56132e-20 -0.076302)
(0.139804 -3.73538e-20 -0.0721957)
(0.107444 0 -0.0663199)
(0.0801944 4.00359e-20 -0.059219)
(0.0590598 4.11434e-20 -0.0515902)
(0.0443462 1.36033e-22 -0.0439785)
(0.0364147 -8.34324e-20 -0.0370016)
(0.0347071 0 -0.0309522)
(0.0389824 -8.01644e-20 -0.0261967)
(0.0477427 0 -0.0226013)
(0.0603699 0 -0.0203145)
(0.0747606 0 -0.0189548)
(0.0907332 1.2166e-22 -0.0186949)
(0.106054 0 -0.0188832)
(0.121452 4.87986e-20 -0.0197469)
(0.134395 -8.57601e-20 -0.0204691)
(0.146759 -7.45793e-20 -0.02165)
(0.155379 0 -0.0223493)
(0.163567 5.55622e-20 -0.0236444)
(0.16716 9.54212e-20 -0.0243283)
(0.171441 0 -0.0259279)
(0.17064 0 -0.0266206)
(0.172476 -2.89796e-20 -0.0284384)
(0.168734 -2.48059e-20 -0.0288227)
(0.170405 2.08202e-20 -0.0306676)
(0.165953 3.61379e-20 -0.0305981)
(0.170754 0 -0.0327083)
(0.168476 0 -0.0324431)
(0.179769 1.80174e-22 -0.0353002)
(0.181259 1.31611e-20 -0.0350176)
(0.200123 0 -0.0388929)
(0.203935 1.66845e-22 -0.0384798)
(0.228597 0 -0.0433696)
(0.230608 0 -0.0423353)
(0.257485 0 -0.0480123)
(0.253087 0 -0.0460024)
(0.280317 2.5227e-23 -0.0527405)
(0.267906 6.9327e-23 -0.049679)
(0.296295 -4.87051e-20 -0.0573895)
(0.275066 0 -0.0522917)
(0.305109 -5.80318e-20 -0.0602767)
(0.274881 0 -0.0525014)
(0.309994 -1.15094e-19 -0.0613977)
(0.275316 9.9262e-20 -0.0518523)
(0.320846 -8.24689e-20 -0.0629092)
(0.28494 -5.75563e-20 -0.0525391)
(0.340916 0 -0.066768)
(0.304956 3.48281e-20 -0.0565665)
(0.365317 0 -0.0739144)
(0.336689 -5.05128e-20 -0.0644446)
(0.381786 -6.48865e-20 -0.0812166)
(0.388352 1.39294e-19 -0.0751429)
(0.369058 0 -0.0808686)
(0.472191 -1.33123e-19 -0.0893754)
(0.313211 0 -0.0626948)
(0.531735 5.24128e-21 -0.111592)
(0.412542 0 -0.0479554)
(0.204854 -9.14856e-21 -0.110819)
(1.50444 0 -0.125178)
(-2.30658 2.0138e-19 0.154643)
(6.59282 -5.48335e-19 -1.09348)
(-6.48473 -8.93829e-19 1.35634)
(7.67837 1.01274e-18 -1.8946)
(-2.50864 0 1.47464)
(-4.12859 -4.00401e-18 -1.09469)
(23.6076 -1.95264e-18 -1.32081)
(-54.2401 0 7.99305)
(69.7836 1.05558e-17 -13.7323)
(-70.5089 0 18.1806)
(27.9093 0 -14.24)
(78.7046 -1.54693e-17 -4.00585)
(-160.59 0 29.4359)
(117.391 0 -27.6165)
(-144.104 -9.5839e-18 32.8728)
(81.157 3.99813e-16 -29.9542)
(60.3178 -4.43622e-16 2.07478)
(-135.549 0 19.8673)
(174.586 0 -35.6335)
(-223.962 0 54.4552)
(51.9795 0 -32.0218)
(219.42 8.99195e-17 -38.9511)
(-59.455 -1.78754e-17 21.2801)
(49.9109 0 -9.5409)
(-62.7236 0 15.0146)
(-14.3516 0 -2.09929)
(47.9092 0 -12.1092)
(0.601529 2.3175e-21 0.136281)
(0.59556 0 0.0913735)
(0.588021 2.63791e-21 0.0566121)
(0.54662 0 0.0366786)
(0.501826 2.08569e-21 0.0240225)
(0.460257 0 0.0107598)
(0.416694 -2.31294e-21 -0.00576066)
(0.367478 4.04496e-21 -0.0259745)
(0.313189 7.33823e-21 -0.0470777)
(0.25797 4.38098e-22 -0.0632392)
(0.206256 0 -0.0715747)
(0.158016 0 -0.0758874)
(0.109843 0 -0.0845507)
(0.0603073 0 -0.0996084)
(0.0137151 0 -0.113636)
(-0.021874 0 -0.117513)
(-0.0396761 2.7974e-21 -0.108184)
(-0.0376293 -3.51654e-21 -0.0895931)
(-0.0181113 4.36973e-21 -0.0687729)
(0.0150183 0 -0.0512561)
(0.058601 0 -0.038932)
(0.109603 5.70137e-21 -0.0312398)
(0.163714 5.90812e-21 -0.0275212)
(0.215719 6.03272e-21 -0.027805)