/*--------------------------------*- C++ -*----------------------------------*\
| =========                 |                                                 |
| \\      /  F ield         | OpenFOAM: The Open Source CFD Toolbox           |
|  \\    /   O peration     | Version:  2412                                  |
|   \\  /    A nd           | Website:  www.openfoam.com                      |
|    \\/     M anipulation  |                                                 |
\*---------------------------------------------------------------------------*/
FoamFile
{
    version     2.0;
    format      ascii;
    arch        "LSB;label=32;scalar=64";
    class       volVectorField;
    location    "1.19";
    object      ddt0(U);
}
// * * * * * * * * * * * * * * * * * * * * * * * * * * * * * * * * * * * * * //

dimensions      [0 1 -2 0 0 0 0];

internalField   nonuniform List<vector> 
12600
(
(-13.4545 0 1.67905)
(-11.9842 5.82664e-18 -1.51123)
(-5.71071 1.36079e-17 -0.194516)
(6.99343 0 2.27473)
(15.6118 -5.98489e-18 4.85404)
(14.3311 0 4.07061)
(3.02352 6.20124e-17 -0.664071)
(-9.82295 0 -5.80655)
(-12.1674 0 -6.38934)
(0.0774588 0 -0.840984)
(16.6344 0 5.86492)
(25.9168 1.50045e-16 6.88533)
(9.253 2.35757e-16 -3.68253)
(-27.3811 0 -22.1342)
(-35.3946 -2.87008e-16 -17.5313)
(-10.7863 0 -3.90377)
(11.6103 7.05172e-19 5.10032)
(7.34256 0 2.46932)
(-9.25331 -5.57644e-17 -3.93425)
(-21.4028 0 -5.87699)
(-14.8667 0 2.05529)
(25.6193 0 23.6939)
(81.2192 -3.93234e-16 34.8187)
(90.6433 7.0516e-16 4.34419)
(-25.5317 1.3646e-16 -98.6281)
(-235.344 -8.59394e-17 -178.825)
(-218.174 0 -76.5119)
(10.3501 0 62.8833)
(120.703 0 94.4837)
(92.5361 -8.4181e-16 60.8388)
(40.6935 -5.20515e-16 23.8127)
(12.8084 0 5.75909)
(5.57313 0 1.091)
(1.61344 5.37276e-18 -0.707885)
(-3.24565 -1.01725e-17 -2.55822)
(-6.5541 0 -3.81658)
(-7.56328 0 -3.91594)
(-3.93007 -2.56789e-16 -1.93029)
(-0.393397 0 0.010298)
(0.345686 5.91317e-18 0.627186)
(0.406153 -1.06621e-16 0.701881)
(-0.880537 -5.25901e-17 0.0741422)
(-0.871883 0 -0.0131297)
(0.1594 -7.67395e-18 0.390085)
(0.308256 -7.84022e-19 0.505797)
(0.740113 1.3888e-17 0.762647)
(0.526252 1.61011e-17 0.760484)
(-0.845353 0 -0.0861393)
(-0.689595 8.33766e-18 0.0753737)
(-0.937652 1.75671e-17 0.00842216)
(-1.05366 0 0.068365)
(-0.325628 -2.90112e-18 0.521427)
(-0.791716 -1.10401e-16 0.406401)
(-1.00475 0 0.396012)
(-0.733819 2.76477e-16 0.560735)
(-1.37364 0 0.228824)
(-1.03885 0 0.41781)
(-0.533516 -5.01866e-18 0.587494)
(-0.985339 -4.74938e-18 0.272085)
(-0.587251 1.2562e-16 0.35808)
(-0.542785 -1.18298e-16 0.261772)
(-0.729792 2.84272e-16 0.171513)
(0.050308 0 0.216745)
(0.245542 6.22021e-17 0.258453)
(0.110811 2.07157e-17 0.271998)
(0.340185 1.33744e-16 0.288763)
(-0.475823 -1.4739e-16 0.338108)
(-1.23508 0 0.238572)
(-0.833395 0 0.724982)
(-1.2147 0 0.710921)
(-0.72717 0 0.660054)
(0.170172 0 0.473446)
(0.442001 2.52621e-16 -0.0771001)
(1.64348 -8.27239e-17 -0.659043)
(2.76456 0 -1.46943)
(3.51297 0 -1.98145)
(4.16723 -1.72368e-16 -2.06387)
(4.15959 1.38667e-19 -1.89373)
(2.82863 -5.46649e-16 -1.36165)
(1.0248 0 -0.696898)
(-0.603793 0 0.0191893)
(-1.64322 0 0.441742)
(-2.15289 -3.88341e-21 0.738392)
(-2.87 0 1.03507)
(-2.87112 0 1.39922)
(-2.51535 1.96806e-16 2.46482)
(-1.39683 -6.36156e-18 1.21256)
(1.99333 0 0.324017)
(4.52158 0 -2.55854)
(7.03895 -1.27668e-16 -4.62379)
(8.16824 1.70409e-17 -4.91674)
(8.0079 5.06331e-16 -4.17803)
(6.67198 3.63278e-16 -3.59774)
(1.06594 -2.65649e-18 -0.572645)
(-8.48999 7.12288e-18 5.59908)
(-14.009 3.78757e-16 4.66479)
(0.89736 0 0.17815)
(6.91495 0 -1.51243)
(-2.97496 0 0.338388)
(4.88747 3.87549e-15 -1.32137)
(-61.4634 6.05374e-15 34.8232)
(-31.3924 4.29568e-15 14.5092)
(47.6288 4.46323e-15 -25.4794)
(6.97761 0 -3.37893)
(-19.1866 0 9.38607)
(19.0236 0 -4.84244)
(-23.2783 -7.37013e-15 12.7968)
(-5.91784 0 1.21892)
(5.28992 -4.48071e-16 -1.66106)
(-11.3301 0 5.87389)
(-9.70467 0 5.02933)
(5.34672 -2.05421e-16 -1.6035)
(16.9105 0 -10.3745)
(32.1519 0 -17.5727)
(40.2956 0 -21.96)
(-2.6654 4.02123e-15 -0.820071)
(-53.6433 0 29.0579)
(-25.3651 -1.85513e-15 15.1964)
(8.50081 0 -4.06964)
(2.48015 -1.14043e-18 -1.26546)
(-15.1689 6.23057e-18 2.3516)
(-15.6835 -4.63444e-18 -0.708455)
(-4.18387 -6.82358e-18 2.75642)
(10.8608 0 6.52766)
(17.9579 3.32829e-17 8.35143)
(11.4075 -6.33003e-17 4.82607)
(-4.1505 -6.469e-17 -3.53688)
(-16.162 4.14157e-17 -11.1473)
(-13.0151 0 -11.6362)
(3.95585 0 -4.20733)
(19.3839 0 3.86446)
(18.9067 0 1.08402)
(-9.8021 0 -15.666)
(-44.3217 0 -40.6969)
(-33.1446 3.4564e-17 -25.1354)
(-2.33669 0 -4.10469)
(16.2478 -6.43585e-17 8.27816)
(6.29767 0 5.34328)
(-12.7584 1.21034e-16 -5.0618)
(-22.0175 -1.03579e-16 -9.0171)
(-4.76525 0 5.59798)
(48.4256 -9.02744e-17 46.8864)
(91.1942 1.93752e-16 58.8616)
(37.6782 -3.35009e-16 -29.2472)
(-167.661 3.24195e-16 -261.881)
(-350.58 0 -381.303)
(-176.618 1.03746e-15 -101.321)
(103.108 0 153.876)
(169.102 0 178.192)
(103.53 0 107.26)
(37.4104 2.40097e-16 39.5589)
(8.76171 0 7.73107)
(2.85012 0 -0.783735)
(-0.860001 0 -3.08918)
(-5.91494 0 -5.27752)
(-8.97842 0 -6.56931)
(-8.88591 0 -5.76985)
(-4.26745 2.64205e-16 -2.65649)
(-0.496367 0 0.183038)
(0.069772 3.61058e-16 1.1875)
(-0.161881 2.0852e-16 1.26642)
(-1.54378 4.16468e-17 0.617055)
(-1.44413 0 0.51564)
(-0.404337 0 0.984539)
(-0.305733 1.15455e-18 1.16723)
(-0.0205618 -1.41812e-17 1.35496)
(-0.499739 -1.63687e-17 1.2881)
(-2.00144 0 0.340111)
(-1.87794 -1.09494e-17 0.470364)
(-2.19719 0 0.486382)
(-2.32341 0 0.640265)
(-1.66756 5.94291e-17 1.22843)
(-2.25133 0 1.18984)
(-2.5141 0 1.22063)
(-2.28392 -2.79338e-16 1.49097)
(-3.01006 0 1.03253)
(-2.51 0 1.37019)
(-1.91269 -6.96739e-18 1.60406)
(-2.29688 3.74181e-17 1.13466)
(-1.75509 1.65086e-18 1.0952)
(-1.56502 0 0.895882)
(-1.58572 -2.84607e-16 0.7288)
(-0.731347 -2.33316e-16 0.694956)
(-0.541956 0 0.788096)
(-0.824141 -4.08449e-17 0.904004)
(-0.951641 6.67917e-20 1.05016)
(-2.27726 0 1.37812)
(-3.65386 -6.21632e-17 1.5467)
(-3.77423 0 2.44309)
(-4.51326 0 2.60406)
(-3.80996 0 2.386)
(-1.96067 0 1.60969)
(0.13255 -4.9793e-16 -0.0150218)
(3.6987 8.0867e-17 -1.90382)
(6.9559 0 -4.12702)
(9.27805 0 -5.52868)
(10.3853 -1.69439e-16 -5.77887)
(9.60582 3.62033e-19 -5.17668)
(6.26286 5.79465e-18 -3.47576)
(1.78472 0 -1.23102)
(-2.21051 0 0.869108)
(-4.3647 0 2.07278)
(-5.49623 -5.63469e-19 2.60748)
(-6.21615 -4.77219e-16 3.02533)
(-6.37956 2.92875e-16 3.66839)
(-5.23481 -1.90156e-16 6.27065)
(-2.529 -8.4426e-18 2.0318)
(6.20885 2.93883e-16 -2.06385)
(16.618 0 -9.54982)
(25.3813 1.2271e-16 -15.4478)
(27.3727 0 -16.0814)
(23.7109 -4.85481e-16 -13.2884)
(19.7986 0 -10.9891)
(1.34942 1.66612e-15 -0.322227)
(-30.4793 1.3229e-15 18.7876)
(-38.5218 0 18.2443)
(2.22118 0 -1.2688)
(17.8011 8.43367e-16 -7.4245)
(-3.18713 1.18172e-15 0.856201)
(12.2505 -3.68041e-15 -3.84497)
(-194.371 -5.74945e-15 112.877)
(-85.5312 -4.0761e-15 43.3536)
(137.414 0 -79.5612)
(26.153 -5.67664e-17 -12.1486)
(-41.3553 0 22.9878)
(47.5105 0 -16.2679)
(-67.4427 6.96939e-15 39.3695)
(-5.36334 0 0.346127)
(12.3231 7.79901e-18 -5.42916)
(-29.699 -2.52124e-15 17.2412)
(-20.7788 0 11.6799)
(23.2849 0 -12.0807)
(60.8939 0 -36.359)
(97.3283 2.05084e-16 -59.4347)
(126.211 5.86109e-17 -70.8053)
(27.9905 -3.78031e-15 -11.1139)
(-131.041 0 76.7074)
(-83.1289 1.74243e-15 46.9947)
(8.62205 0 -5.69296)
(2.87371 -1.87708e-15 -1.7596)
(-15.6903 -1.31482e-17 0.969651)
(-13.109 1.21041e-18 2.91413)
(-1.36974 -9.42763e-19 7.41606)
(10.2986 0 9.13062)
(12.5603 4.85792e-17 6.14099)
(3.15035 9.67685e-19 -0.284485)
(-10.8769 0 -7.06601)
(-18.1641 -3.93084e-17 -10.6849)
(-11.8041 0 -10.0325)
(3.04884 -1.56405e-17 -7.6415)
(10.9429 0 -7.92813)
(3.30504 0 -17.0841)
(-23.0006 0 -27.8026)
(-38.2543 0 -32.7006)
(-18.4738 9.87259e-17 -12.7326)
(5.22807 0 1.81469)
(15.9271 0 5.935)
(4.67971 0 5.57056)
(-12.1328 -5.9787e-17 0.0354442)
(-16.8246 -3.32421e-18 -2.63102)
(4.06322 0 5.65818)
(41.1059 2.50228e-17 22.5607)
(44.2265 0 8.21716)
(-52.2593 -2.62355e-17 -86.6722)
(-235.622 0 -292.595)
(-266.236 0 -300.557)
(-3.5725 -9.84039e-16 60.4802)
(158.724 0 200.756)
(146.303 0 158.394)
(72.709 -1.97816e-16 82.8029)
(18.888 0 25.8198)
(0.601818 0 0.674534)
(-1.30371 0 -6.25158)
(-3.07425 0 -6.55882)
(-6.67844 5.66396e-17 -6.36655)
(-8.46703 0 -5.79587)
(-7.3719 0 -3.53389)
(-3.29527 -2.68185e-16 -1.22588)
(-0.421515 0 0.425254)
(-0.189016 -3.28871e-16 1.27092)
(-0.637708 -5.13118e-18 1.24686)
(-1.70968 -3.94292e-17 1.29461)
(-1.64186 0 1.27145)
(-0.927263 0 1.31366)
(-0.977625 -3.34602e-19 1.43389)
(-1.0128 0 1.26193)
(-1.64561 1.54842e-17 1.10414)
(-2.74327 0 1.02821)
(-2.81821 -3.10324e-18 0.958436)
(-3.12199 0 1.16166)
(-3.30331 0 1.39872)
(-2.96703 0 1.61434)
(-3.51806 1.10445e-16 1.8057)
(-3.80189 0 1.9122)
(-3.69989 0 2.05181)
(-4.20231 0 1.96268)
(-3.71581 0 2.14884)
(-3.15559 -1.01237e-16 2.18565)
(-3.27822 0 1.93994)
(-2.69422 -1.44878e-19 1.65459)
(-2.34313 0 1.41736)
(-2.22303 1.34165e-16 1.26031)
(-1.39489 2.19982e-16 1.09555)
(-1.27184 0 1.23078)
(-1.73342 3.75821e-17 1.5103)
(-2.21445 -6.28715e-17 1.87029)
(-4.00493 0 2.57126)
(-5.8493 5.85418e-17 3.28156)
(-6.71822 0 4.14058)
(-7.69724 0 4.59728)
(-6.79138 0 4.16409)
(-4.0353 0 2.67281)
(-0.12108 -7.67586e-19 0.0667204)
(5.63252 -7.60486e-17 -3.12269)
(10.965 0 -6.3133)
(14.5589 0 -8.24387)
(15.764 -4.43823e-19 -8.43529)
(13.9126 4.99118e-16 -7.14982)
(8.36545 2.43188e-16 -4.30698)
(1.47857 0 -0.553983)
(-4.48328 0 2.58524)
(-7.37895 0 4.19657)
(-8.6664 -1.05629e-15 4.51995)
(-8.8591 2.96834e-18 4.40846)
(-8.6661 -2.7474e-16 4.76612)
(-6.94307 0 7.30698)
(-2.08091 -1.64601e-17 0.712546)
(11.6275 -2.75515e-16 -7.18084)
(30.0527 0 -18.0935)
(44.5612 0 -26.7539)
(46.1599 -1.4242e-17 -26.7925)
(37.5983 0 -21.0683)
(30.8409 -3.30088e-16 -16.601)
(-0.241606 -4.47801e-19 2.23055)
(-54.4606 -1.22647e-15 33.0714)
(-62.3945 -4.35539e-16 32.9118)
(4.37563 0 -4.93899)
(27.2012 -7.89265e-16 -13.9887)
(-6.4104 -1.10575e-15 2.80371)
(23.568 3.44776e-15 -5.75032)
(-312.536 0 182.642)
(-148.771 -3.8384e-15 71.5814)
(214.896 0 -127.001)
(53.5185 5.30809e-17 -23.4943)
(-51.8806 8.95309e-16 26.8304)
(67.0278 0 -30.2954)
(-107.001 -6.51465e-15 62.4186)
(0.0342209 0 -4.51695)
(18.9254 7.76976e-16 -8.60616)
(-42.7839 2.35601e-15 25.0489)
(-24.1989 0 11.8835)
(47.6654 0 -30.0483)
(108 0 -65.4398)
(161.049 3.63099e-17 -93.0107)
(206.498 -5.47475e-17 -115.643)
(74.7377 3.52029e-15 -37.9389)
(-174.873 0 100.929)
(-132.989 1.6449e-15 73.0286)
(-0.984094 0 -0.200108)
(1.15011 -1.13728e-18 -0.286475)
(-13.4187 6.85825e-18 2.2571)
(-8.6326 6.29258e-18 5.80849)
(0.159079 -5.69614e-18 9.25239)
(6.91082 3.61693e-17 9.10121)
(5.29665 5.41648e-17 4.1734)
(-4.71405 1.07253e-16 -2.83178)
(-15.9423 0 -8.14898)
(-19.3412 0 -9.46778)
(-11.3423 0 -8.09179)
(1.25881 1.48148e-17 -7.85691)
(3.76787 0 -12.3874)
(-5.9018 0 -22.7635)
(-26.6424 0 -30.2337)
(-28.7365 0 -23.6899)
(-8.96518 0 -8.12048)
(10.4067 4.69197e-17 5.51909)
(15.8387 -6.86944e-17 6.03277)
(3.36512 0 5.13938)
(-12.0129 0 2.44404)
(-14.5981 9.62595e-17 1.25101)
(1.25003 -6.55626e-17 1.97779)
(17.305 5.7425e-17 -7.49235)
(-1.16512 4.86383e-18 -39.4006)
(-92.2251 2.48513e-17 -91.0253)
(-159.519 -4.60353e-16 -133.608)
(-55.5904 6.25077e-16 -45.5023)
(150.636 0 222.055)
(184.83 -2.40699e-16 251.024)
(114.755 0 138.502)
(45.062 1.87209e-16 64.6521)
(2.92115 0 14.9767)
(-6.52693 0 -5.41442)
(-4.4633 0 -10.4804)
(-4.6451 -6.96756e-17 -9.51218)
(-7.35098 -5.35796e-17 -7.87132)
(-8.42285 0 -6.28753)
(-6.86026 0 -3.328)
(-2.84517 2.53602e-16 -0.794916)
(-0.282845 0 0.690492)
(-0.191252 5.2307e-18 1.68049)
(-0.816582 -8.38589e-17 1.61142)
(-1.90653 0 1.75818)
(-1.9229 0 1.75469)
(-1.35493 0 1.67307)
(-1.52225 0 1.763)
(-1.68364 -1.40888e-17 1.56616)
(-2.41606 0 1.36558)
(-3.50722 4.61676e-18 1.45238)
(-3.64814 1.27055e-17 1.41664)
(-3.99552 0 1.67493)
(-4.22559 0 2.00375)
(-4.01763 0 2.15839)
(-4.62166 -1.042e-16 2.38906)
(-4.9422 1.08048e-16 2.53424)
(-4.92584 2.45293e-16 2.56237)
(-5.28303 0 2.68629)
(-4.83049 9.69797e-17 2.71147)
(-4.25389 9.1568e-17 2.6132)
(-4.20627 0 2.43838)
(-3.50482 -2.26421e-16 2.09306)
(-3.0419 0 1.79519)
(-2.83603 -1.24732e-16 1.63763)
(-2.01042 -2.06246e-16 1.47792)
(-1.99295 0 1.65676)
(-2.65218 -1.74548e-17 2.11932)
(-3.48416 5.78442e-17 2.70745)
(-5.74794 0 3.71259)
(-8.10788 0 4.79912)
(-9.54173 0 5.81981)
(-10.7766 -1.12979e-16 6.43772)
(-9.65985 -5.41513e-17 5.77401)
(-5.99677 0 3.57731)
(-0.411401 2.20974e-16 -0.0968193)
(7.32438 7.15908e-17 -4.54438)
(14.4381 0 -8.59559)
(18.9444 0 -10.861)
(19.9892 1.49921e-16 -10.7279)
(16.8942 -5.35646e-19 -8.5069)
(9.19444 0 -4.40915)
(0.176037 0 0.596437)
(-7.28201 0 4.509)
(-10.5559 0 6.15469)
(-11.3872 2.58857e-18 6.15138)
(-10.4325 4.17046e-16 5.28867)
(-9.29863 0 5.11545)
(-7.44132 0 5.63972)
(0.725298 0 -1.59927)
(19.4046 -2.59473e-16 -12.8295)
(44.7832 0 -27.6034)
(63.9827 1.30488e-16 -38.439)
(63.7896 1.33371e-17 -36.7653)
(49.1637 -4.26733e-16 -27.3547)
(39.283 3.09012e-16 -20.4911)
(-4.3266 -1.46061e-15 6.72349)
(-79.5141 1.14782e-15 48.6876)
(-85.6024 4.0755e-16 45.1174)
(9.12791 0 -9.83311)
(33.6763 0 -17.6015)
(-16.7693 -1.01256e-15 8.85055)
(37.4371 -1.61468e-15 -6.89771)
(-393.4 5.02504e-15 233.233)
(-235.766 9.06287e-18 110.958)
(276.536 0 -168.714)
(89.74 0 -38.0376)
(-51.1018 -8.36849e-16 26.8629)
(81.4144 0 -42.6389)
(-141.066 6.08412e-15 83.5139)
(7.84866 0 -11.3212)
(25.3024 2.82097e-18 -11.1708)
(-50.1097 0 30.0942)
(-19.3644 -1.53564e-15 7.89449)
(79.7356 -2.648e-16 -51.092)
(157.768 -1.36915e-15 -95.9763)
(214.763 4.05335e-17 -129.565)
(274.77 0 -153.755)
(136.866 -3.28751e-15 -56.5125)
(-187.158 -7.74039e-17 113.462)
(-170.96 -1.53595e-15 92.0473)
(-16.6317 0 5.57157)
(-1.93952 -2.2191e-18 1.14853)
(-10.248 0 3.61178)
(-5.63716 7.21333e-18 6.47434)
(-0.186394 0 8.26118)
(2.41782 -3.41727e-17 7.00932)
(-1.57375 -9.45994e-17 2.23572)
(-10.5634 -4.84833e-17 -3.21603)
(-18.2871 0 -6.1427)
(-18.4747 0 -5.48367)
(-10.0861 -1.46146e-17 -3.60059)
(-0.169089 -1.0685e-17 -4.54948)
(-0.983539 -5.0075e-18 -10.574)
(-9.51336 -3.40667e-17 -19.4234)
(-23.0391 -6.69251e-17 -23.8988)
(-18.1025 0 -13.6372)
(-0.36856 0 -2.79015)
(14.0819 -9.78696e-17 8.0414)
(15.0411 -8.6443e-18 6.64265)
(1.43187 0 4.2937)
(-13.3611 6.785e-17 2.31957)
(-15.4672 8.37163e-17 1.73977)
(-3.56878 6.19829e-17 -0.278987)
(5.12042 0 -12.4087)
(-13.3319 -4.60256e-18 -39.9356)
(-64.4141 8.66312e-17 -53.2098)
(-38.041 4.35161e-16 25.8422)
(92.5163 -2.51697e-16 133.83)
(173.929 0 214.533)
(143.145 3.13188e-16 217.114)
(69.776 0 118.37)
(16.0019 -1.01753e-16 43.1862)
(-12.8264 0 3.13636)
(-12.7395 0 -10.982)
(-6.51322 0 -13.3049)
(-5.28404 6.58101e-17 -11.2162)
(-7.41071 0 -8.59265)
(-8.088 0 -6.42205)
(-6.32889 0 -3.15841)
(-2.43331 0 -0.393447)
(-0.154086 -1.91523e-16 1.00758)
(-0.222641 2.73045e-16 2.10143)
(-1.01972 0 2.00733)
(-2.16474 2.25713e-17 2.1615)
(-2.26231 0 2.18474)
(-1.80196 0 2.03661)
(-2.06959 0 2.09452)
(-2.32615 -1.99354e-18 1.91128)
(-3.13117 0 1.6835)
(-4.24615 -4.35312e-18 1.84819)
(-4.42759 0 1.87531)
(-4.81562 0 2.16442)
(-5.09336 1.11026e-17 2.56711)
(-4.97618 0 2.70398)
(-5.64035 0 2.9219)
(-5.99817 -1.35372e-18 3.08029)
(-6.02547 -2.31037e-16 3.0288)
(-6.31801 0 3.20034)
(-5.84553 -2.88398e-18 3.16183)
(-5.20971 -8.28609e-17 2.99143)
(-5.03798 0 2.82607)
(-4.23976 1.06353e-16 2.43759)
(-3.68862 0 2.10017)
(-3.42527 1.17342e-16 1.97177)
(-2.62554 1.93991e-16 1.86052)
(-2.73089 0 2.11097)
(-3.60106 1.51823e-17 2.75914)
(-4.77119 -1.01217e-18 3.57001)
(-7.47031 0 4.85197)
(-10.2927 0 6.28852)
(-12.2139 0 7.48166)
(-13.7141 2.12995e-16 8.15797)
(-12.4103 -8.46615e-19 7.23736)
(-7.90784 0 4.32072)
(-0.797842 -2.09081e-16 -0.397521)
(8.72508 -1.34755e-16 -5.94857)
(17.3508 0 -10.658)
(22.4864 0 -12.9942)
(23.1456 0 -12.3247)
(18.6993 -6.4686e-19 -9.05485)
(9.05242 0 -3.62955)
(-1.73296 0 2.35946)
(-10.2491 0 6.66583)
(-13.5676 0 7.96725)
(-13.4921 4.61044e-16 7.39903)
(-10.9269 3.81358e-16 5.54172)
(-8.45487 0 4.489)
(-5.92962 0 2.81437)
(5.51494 0 -5.34389)
(28.8185 4.81837e-19 -19.7327)
(60.3207 0 -37.9949)
(83.0763 -1.22155e-16 -50.0021)
(79.5729 0 -45.3715)
(58.0656 3.99368e-16 -31.7233)
(45.0315 0 -22.2467)
(-10.8332 6.82655e-16 13.68)
(-104.981 0 65.2188)
(-106.242 0 54.8174)
(16.4298 0 -16.8585)
(33.7889 0 -17.0741)
(-36.3648 9.468e-16 19.7694)
(48.2937 0 -4.83107)
(-405.953 -4.69767e-15 247.144)
(-369.919 3.34632e-15 172.759)
(319.151 0 -201.948)
(133.474 0 -55.1918)
(-42.3591 0 22.4043)
(94.7955 0 -48.7098)
(-171.013 -7.63416e-18 101.966)
(14.7472 0 -19.6959)
(31.493 -6.88852e-16 -13.1838)
(-52.3865 0 32.0476)
(-8.18956 2.86514e-15 -1.87399)
(117.059 2.47316e-16 -76.7438)
(207.75 1.27867e-15 -127.482)
(261.095 -2.36621e-16 -160.855)
(328.588 0 -182.906)
(189.437 0 -85.8433)
(-179.81 1.33402e-16 113.254)
(-196.692 -1.4363e-15 103.564)
(-32.3035 -2.02502e-15 12.1108)
(-5.50074 7.66588e-16 3.01546)
(-8.33282 0 2.50583)
(-5.16883 -3.24092e-17 4.35807)
(-2.02736 0 5.2243)
(-1.72841 0 3.99651)
(-6.21897 0 0.802026)
(-13.0918 0 -1.91699)
(-17.4335 0 -1.94184)
(-15.465 5.57714e-18 0.625624)
(-7.75886 1.37901e-17 3.0778)
(-0.552844 2.66173e-17 1.8594)
(-2.97544 -8.53367e-19 -3.9344)
(-8.93758 3.21524e-17 -10.2706)
(-15.9969 6.31693e-17 -12.9206)
(-8.06672 0 -3.25194)
(6.53728 0 3.15896)
(15.6522 1.12615e-16 9.48031)
(12.7781 1.48946e-16 6.47367)
(-1.25823 0 2.98921)
(-14.9145 -6.40479e-17 1.73048)
(-16.3115 -7.90227e-17 2.51745)
(-6.07138 0 1.38844)
(1.18694 -2.11998e-17 -6.68738)
(-7.41987 0 -21.6673)
(-24.8941 -6.31889e-17 -12.6418)
(20.9041 -9.73233e-17 69.2724)
(118.267 -2.63228e-16 150.005)
(125.495 0 133.359)
(76.8178 -8.09016e-17 114.327)
(24.9886 3.44012e-16 73.6231)
(-21.7585 2.2542e-16 7.67511)
(-27.1347 -4.1345e-17 -10.2018)
(-17.0575 0 -15.4243)
(-7.04428 -1.80684e-16 -14.317)
(-4.86156 0 -11.3885)
(-6.77849 0 -8.26985)
(-7.35703 0 -5.90467)
(-5.61057 0 -2.66761)
(-1.96931 0 0.156101)
(-0.0291816 2.63715e-18 1.40593)
(-0.306119 -1.25693e-16 2.5082)
(-1.28081 0 2.38662)
(-2.48546 -3.77901e-17 2.51282)
(-2.65489 0 2.57125)
(-2.27956 0 2.38784)
(-2.62922 0 2.41777)
(-2.96631 1.43941e-17 2.25714)
(-3.82504 0 2.00534)
(-4.95546 0 2.22575)
(-5.16465 0 2.31747)
(-5.58055 0 2.62925)
(-5.89775 -1.95067e-17 3.09546)
(-5.8512 0 3.22904)
(-6.56567 0 3.41509)
(-6.95226 -9.44977e-17 3.57342)
(-6.99891 0 3.45392)
(-7.24784 0 3.60745)
(-6.72496 -1.62918e-16 3.55366)
(-6.02377 3.8109e-17 3.32721)
(-5.75562 0 3.15002)
(-4.88086 0 2.73685)
(-4.27161 0 2.36878)
(-3.98202 -1.074e-16 2.28316)
(-3.23204 0 2.24242)
(-3.46531 0 2.58889)
(-4.54561 -2.7782e-17 3.41833)
(-6.0249 -9.90062e-17 4.44015)
(-9.10726 0 5.96897)
(-12.3413 0 7.70687)
(-14.6906 0 9.05896)
(-16.4538 -1.00301e-16 9.7479)
(-15.0233 4.85214e-17 8.55007)
(-9.80145 2.02862e-16 4.9216)
(-1.36148 1.96142e-16 -0.782669)
(9.70923 6.33634e-17 -7.27087)
(19.5584 -1.22752e-16 -12.45)
(25.0719 0 -14.6365)
(25.1918 0 -13.2448)
(19.4022 -2.0471e-16 -8.86313)
(8.05792 0 -2.24976)
(-4.06393 0 4.43634)
(-13.1734 0 8.81576)
(-16.1859 0 9.54388)
(-14.8976 0 8.15195)
(-10.3865 -7.07344e-16 5.11543)
(-6.13639 0 3.00412)
(-2.02064 5.0502e-17 -0.100655)
(12.0817 0 -10.2724)
(39.5008 9.79057e-19 -27.8077)
(76.295 -6.73959e-16 -48.7691)
(101.127 0 -60.9467)
(92.6932 0 -52.1174)
(63.9239 0 -34.0443)
(47.9932 0 -21.9201)
(-19.7902 -6.33613e-16 22.8763)
(-130.143 0 81.9056)
(-123.082 0 61.3901)
(25.8232 0 -25.7598)
(24.9463 0 -10.4798)
(-62.7354 0 34.3715)
(46.1969 0 3.93679)
(-315.925 0 206.716)
(-580.149 0 277.876)
(335.501 -3.28861e-15 -226.432)
(181.768 0 -73.8134)
(-27.3896 0 15.2126)
(106.299 0 -52.9709)
(-197.099 -5.30308e-15 118.795)
(19.1471 0 -26.9434)
(37.2019 3.23761e-16 -14.6678)
(-50.0734 0 31.3224)
(9.67768 -4.86262e-18 -14.7979)
(158.669 0 -105.316)
(256.607 -1.18965e-15 -158.313)
(300.397 0 -182.483)
(365.623 0 -202.757)
(233.276 0 -107.243)
(-157.727 -5.70709e-17 108.741)
(-211.639 2.68224e-15 109.838)
(-45.9375 3.77364e-15 16.2092)
(-9.70611 7.23067e-16 4.74443)
(-7.64936 0 -0.205542)
(-6.10449 3.80125e-17 0.889856)
(-4.00112 0 1.70812)
(-4.37638 0 1.30947)
(-7.88758 4.18413e-17 0.213477)
(-12.1311 3.03739e-17 0.297749)
(-13.7316 -1.30619e-17 2.85755)
(-10.8373 -1.43213e-17 6.97194)
(-4.72368 0 10.0054)
(-0.142921 -1.04e-18 9.22046)
(-3.12182 5.25703e-18 4.61006)
(-6.57792 0 0.608505)
(-9.01395 0 -1.38944)
(-0.73341 0 5.46219)
(10.1628 0 7.78397)
(14.5485 1.26633e-17 9.47518)
(9.01635 9.71194e-18 5.26298)
(-4.36234 -8.56201e-17 1.42531)
(-15.9746 -6.48501e-17 1.25706)
(-16.1061 0 3.91845)
(-6.09532 3.84346e-17 5.15194)
(2.19177 1.99818e-17 1.92215)
(4.1563 0 -2.55778)
(7.3221 -8.24202e-17 13.5384)
(49.7707 1.70853e-16 75.4709)
(105.51 -5.34971e-17 117.472)
(87.9101 0 87.7281)
(27.801 0 51.9722)
(-23.2232 -3.24139e-16 16.8508)
(-44.6972 -2.5453e-17 -16.2894)
(-34.9957 1.45931e-16 -22.7844)
(-18.2757 0 -17.7523)
(-5.71875 3.90955e-16 -13.0449)
(-3.39377 0 -9.88211)
(-5.52614 0 -6.85805)
(-6.29328 -1.35461e-16 -4.71749)
(-4.7335 0 -1.82109)
(-1.4803 -2.29098e-16 0.841197)
(0.0612509 3.7999e-18 1.84119)
(-0.460137 1.03093e-16 2.85531)
(-1.6118 0 2.70026)
(-2.86717 4.55507e-18 2.78007)
(-3.09107 0 2.88604)
(-2.77765 0 2.69981)
(-3.18597 0 2.71511)
(-3.58571 0 2.59036)
(-4.47527 0 2.3256)
(-5.60501 1.45697e-17 2.59073)
(-5.83043 0 2.74494)
(-6.26182 0 3.07031)
(-6.61216 8.51493e-18 3.58463)
(-6.62581 0 3.71449)
(-7.37727 8.10554e-17 3.85798)
(-7.78167 8.47658e-17 4.00934)
(-7.8309 -1.8734e-16 3.82658)
(-8.03171 0 3.94527)
(-7.45777 7.49308e-17 3.87932)
(-6.70144 3.17775e-17 3.59345)
(-6.35653 0 3.40098)
(-5.42894 0 2.97668)
(-4.78565 0 2.59237)
(-4.49166 1.00843e-16 2.56518)
(-3.80424 0 2.61403)
(-4.16231 0 3.06663)
(-5.43362 1.26897e-17 4.07128)
(-7.17811 9.02838e-17 5.28824)
(-10.5806 0 7.03204)
(-14.1681 0 9.02697)
(-16.8962 0 10.5211)
(-18.9353 0 11.1908)
(-17.4739 4.74586e-17 9.70959)
(-11.7056 -1.90203e-16 5.40158)
(-2.17819 0 -1.2001)
(10.1704 0 -8.448)
(20.9762 1.15043e-16 -13.8961)
(26.6805 0 -15.7387)
(26.1896 1.27171e-16 -13.4961)
(19.185 -1.90085e-16 -8.00661)
(6.50363 0 -0.388219)
(-6.51691 0 6.67324)
(-15.8132 0 10.8088)
(-18.2567 0 10.7565)
(-15.5643 0 8.35666)
(-8.92635 3.27806e-16 4.01608)
(-2.57624 0 0.690473)
(3.40925 -9.93404e-17 -4.02666)
(20.081 0 -16.2788)
(51.1347 1.39539e-18 -36.7157)
(92.0684 -3.06036e-18 -59.7177)
(117.359 0 -70.7184)
(102.413 1.24446e-17 -56.4649)
(66.6109 0 -34.2016)
(48.4537 0 -19.6071)
(-30.6802 1.18111e-15 34.2459)
(-153.982 0 98.2142)
(-135.483 0 64.1908)
(36.0907 0 -35.2648)
(5.75249 0 3.1021)
(-88.8994 0 48.7368)
(20.6601 0 22.2976)
(-107.211 0 105.174)
(-897.808 0 446.053)
(318.601 3.07232e-15 -240.364)
(230.608 0 -92.0877)
(-7.79297 0 6.42212)
(118.054 0 -54.79)
(-220.14 4.9256e-15 134.091)
(18.6719 -1.51189e-15 -33.0958)
(42.1186 -3.13711e-16 -15.5391)
(-43.6941 -1.79946e-15 28.0486)
(31.6057 -6.26101e-18 -33.4836)
(202.718 2.18448e-16 -136.299)
(301.34 2.21883e-15 -187.004)
(328.169 0 -199.265)
(388.046 2.55808e-17 -216.006)
(270.546 -2.60988e-15 -109.923)
(-130.06 0 101.14)
(-219.208 -1.25214e-15 111.767)
(-55.2222 -1.75791e-15 17.8155)
(-14.5948 -6.74927e-16 6.78836)
(-7.4041 0 -2.42816)
(-6.74254 -1.89675e-17 -1.77708)
(-4.88761 0 -0.786568)
(-5.0762 0 -0.322784)
(-6.96834 -3.9398e-17 0.262161)
(-8.75511 -2.85942e-17 2.31251)
(-8.54764 1.22945e-17 6.43791)
(-5.82312 6.36163e-18 11.3156)
(-1.89384 0 14.6557)
(0.186173 -1.90946e-18 14.5752)
(-2.97868 -4.29635e-18 11.4754)
(-4.81916 0 9.18117)
(-4.63643 -2.11481e-17 7.24968)
(2.48459 0 10.6775)
(9.85727 -5.81684e-17 9.78994)
(10.8519 -6.70245e-17 7.91642)
(4.21364 -7.96518e-17 3.21064)
(-7.39064 8.05966e-17 -0.141411)
(-16.3189 1.21784e-16 0.942773)
(-15.0923 0 5.12668)
(-5.1708 -3.61807e-17 8.21564)
(4.12771 0 7.89989)
(12.7759 0 8.24619)
(24.4725 6.11089e-17 20.4455)
(53.9758 -2.73558e-16 56.8489)
(76.3128 0 69.9096)
(44.6943 0 36.3687)
(-12.681 0 3.6821)
(-51.7855 3.80811e-16 -18.3911)
(-53.9266 -9.07915e-17 -24.151)
(-37.2435 7.87996e-17 -25.7211)
(-14.8204 2.5953e-16 -15.7317)
(-2.38106 -4.59102e-16 -9.1463)
(-1.14065 1.98464e-16 -6.81472)
(-3.88497 -1.60615e-16 -4.50564)
(-5.0718 -1.40109e-17 -2.99827)
(-3.80571 0 -0.701256)
(-1.02722 2.15469e-16 1.60989)
(0.084313 1.53945e-16 2.2779)
(-0.693499 -9.69444e-17 3.122)
(-2.00742 0 2.93381)
(-3.29522 1.03361e-17 2.95742)
(-3.54964 4.476e-18 3.12326)
(-3.27416 1.83067e-18 2.96764)
(-3.71635 2.00017e-18 2.98475)
(-4.16047 0 2.90873)
(-5.05745 0 2.64445)
(-6.16866 4.76511e-18 2.94501)
(-6.39984 0 3.15707)
(-6.83537 0 3.48627)
(-7.21392 4.97523e-18 4.03013)
(-7.28025 -3.57173e-17 4.15281)
(-8.05488 -7.61254e-17 4.24668)
(-8.46622 -2.64641e-18 4.38707)
(-8.50391 7.96158e-18 4.14909)
(-8.65339 0 4.22184)
(-8.03677 0 4.13903)
(-7.23834 -5.75606e-17 3.79301)
(-6.83819 0 3.58129)
(-5.88301 0 3.15487)
(-5.22581 -7.71003e-17 2.76661)
(-4.94109 0 2.80974)
(-4.31916 0 2.96092)
(-4.7867 3.8192e-17 3.52237)
(-6.21603 -1.04196e-17 4.69012)
(-8.17069 -8.15763e-17 6.08179)
(-11.8226 0 8.0078)
(-15.701 4.11355e-17 10.2203)
(-18.765 0 11.8449)
(-21.1096 0 12.4731)
(-19.7434 -9.0199e-17 10.7195)
(-13.649 0 5.78899)
(-3.3201 0 -1.59893)
(10.0197 0 -9.42522)
(21.5486 0 -14.9539)
(27.3332 0 -16.3024)
(26.2656 -1.19087e-16 -13.1412)
(18.2878 1.12246e-18 -6.61289)
(4.67407 1.70263e-16 1.73966)
(-8.80989 -1.73614e-17 8.88295)
(-17.965 0 12.5129)
(-19.6759 0 11.5257)
(-15.5179 0 8.00852)
(-6.72087 0 2.31296)
(1.9599 0 -2.31199)
(10.0571 -5.40772e-18 -8.71364)
(29.1576 0 -23.149)
(63.3784 1.96441e-16 -46.0851)
(106.99 -2.58265e-18 -70.5942)
(130.977 0 -78.7645)
(108.094 -1.16352e-17 -57.9863)
(66.2651 0 -32.2799)
(47.0176 -2.26583e-16 -15.645)
(-42.7588 -4.68075e-18 47.262)
(-175.516 0 113.323)
(-143.304 0 63.2267)
(44.6263 0 -43.7845)
(-22.8299 0 23.1732)
(-105.993 7.17307e-16 57.7959)
(-34.0282 0 50.3395)
(186.489 0 -34.7325)
(-1326.9 2.60785e-15 684.606)
(264.568 0 -245.691)
(275.406 1.1587e-16 -108.299)
(14.3438 6.12279e-16 -4.06507)
(129.789 0 -57.305)
(-239.862 -9.17845e-15 148.083)
(12.6871 1.18585e-17 -36.8044)
(45.7832 5.92998e-16 -15.8033)
(-33.7798 1.68019e-15 22.2197)
(59.6234 -1.15488e-15 -52.4754)
(247.704 -2.03949e-16 -168.517)
(340.007 -1.03448e-15 -211.497)
(345.172 2.12043e-16 -207.979)
(398.599 -2.38803e-17 -223.561)
(291.945 2.43629e-15 -114.33)
(-100.502 6.78593e-19 94.7276)
(-221.85 1.16914e-15 112.031)
(-59.9113 0 16.3619)
(-20.7489 0 9.37839)
(-7.01187 0 -2.59338)
(-6.2493 -1.45524e-17 -2.26696)
(-4.52023 0 -1.58153)
(-4.34529 0 -0.918701)
(-4.74719 0 0.302897)
(-4.77195 0 3.00978)
(-3.75341 -1.91587e-17 7.38311)
(-1.9463 2.04152e-18 12.0445)
(-0.338241 -6.26667e-18 15.2072)
(-0.464871 -1.10649e-17 15.7282)
(-3.78108 4.0379e-18 14.0644)
(-4.99899 0 12.9186)
(-3.82695 1.98807e-17 11.0455)
(1.56927 0 11.6947)
(6.20062 5.46849e-17 8.92798)
(5.43415 8.27088e-17 5.18739)
(-0.794635 0 0.851875)
(-9.84472 0 -1.40078)
(-16.0414 -5.71072e-17 0.737953)
(-14.0317 0 5.49217)
(-5.15792 0 8.82305)
(3.53183 4.70873e-17 8.51221)
(13.7394 0 8.1373)
(25.326 0 11.0693)
(39.7755 1.87155e-16 23.6193)
(39.292 0 18.2623)
(2.66477 0 -13.4191)
(-44.6921 0 -36.501)
(-68.1224 -6.35245e-16 -42.1958)
(-57.7804 0 -33.2614)
(-31.9443 6.61205e-17 -21.0085)
(-9.11573 4.76014e-17 -9.84415)
(1.7502 2.36285e-16 -3.46304)
(2.03445 -1.8652e-16 -1.35586)
(-2.29358 3.1683e-16 -1.68693)
(-3.93382 1.32904e-16 -0.985773)
(-2.9725 0 0.546953)
(-0.688824 0 2.38388)
(7.13403e-05 1.34325e-16 2.67589)
(-1.01643 -7.47732e-17 3.29218)
(-2.4612 0 3.08083)
(-3.75372 0 3.04811)
(-4.00875 -1.27546e-18 3.2846)
(-3.74729 -1.71927e-18 3.19209)
(-4.19922 -1.87831e-18 3.22814)
(-4.67047 -2.47885e-17 3.2113)
(-5.55236 0 2.96178)
(-6.62731 5.02011e-18 3.28893)
(-6.85521 0 3.55207)
(-7.28505 0 3.87532)
(-7.68806 -4.66964e-18 4.42888)
(-7.80195 3.35203e-17 4.53949)
(-8.58742 0 4.57852)
(-8.99773 -7.22076e-17 4.70321)
(-9.01469 8.40179e-18 4.41842)
(-9.11321 0 4.43676)
(-8.46574 0 4.33318)
(-7.64125 5.0045e-17 3.9273)
(-7.20778 0 3.69246)
(-6.24832 0 3.27135)
(-5.59124 1.42729e-16 2.89004)
(-5.32082 0 3.01062)
(-4.75783 0 3.26984)
(-5.3092 -7.07364e-17 3.93501)
(-6.85167 9.76556e-18 5.25031)
(-8.95453 3.74224e-17 6.79269)
(-12.7807 0 8.86945)
(-16.8863 -3.85407e-17 11.265)
(-20.2502 0 13.0115)
(-22.9392 8.45989e-17 13.5912)
(-21.8184 4.28253e-17 11.5914)
(-15.6573 0 6.117)
(-4.84746 0 -1.93195)
(9.19372 -5.66308e-17 -10.162)
(21.2599 -1.02068e-16 -15.61)
(27.1032 0 -16.3676)
(25.6048 0 -12.2901)
(17.0006 3.2975e-16 -4.83211)
(2.87795 -1.59332e-16 3.94714)
(-10.6893 3.12089e-17 10.9057)
(-19.4836 0 13.8346)
(-20.411 0 11.8218)
(-14.8577 0 7.15257)
(-4.00813 0 0.11376)
(7.11681 0 -5.85909)
(17.4707 -6.08764e-18 -14.0475)
(38.8768 0 -30.6789)
(75.607 0 -55.8616)
(120.567 -2.07736e-18 -80.7398)
(141.2 0 -84.513)
(109.309 -3.19981e-17 -56.3875)
(63.3657 0 -28.606)
(44.6469 2.11758e-16 -10.5815)
(-54.8489 -5.73845e-18 61.2874)
(-193.697 0 126.548)
(-147.215 0 58.9652)
(47.9429 0 -48.6934)
(-57.3781 0 47.3599)
(-107.791 -1.84927e-17 59.4885)
(-114.647 1.18178e-15 83.458)
(463.337 3.50547e-15 -151.713)
(-1799 -2.43576e-15 957.677)
(180.633 0 -254.052)
(312.309 -1.08207e-16 -121.373)
(37.8714 -5.71763e-16 -14.8886)
(144.406 0 -56.7365)
(-254.737 4.27526e-15 160.147)
(0.614119 2.59912e-15 -38.4832)
(47.9041 -2.8016e-16 -15.4819)
(-20.1477 0 13.8595)
(88.1087 1.0627e-15 -80.0062)
(291.655 0 -200.762)
(370.024 0 -229.948)
(351.022 -1.97938e-16 -212.123)
(403.206 0 -224.727)
(308.696 0 -110.74)
(-73.0861 -6.33571e-19 90.321)
(-222.293 -1.09123e-15 111.052)
(-60.3813 -1.50079e-15 12.5877)
(-28.8773 6.06883e-16 13.1292)
(-6.47744 0 -0.74542)
(-5.19148 1.36771e-17 -0.825112)
(-3.90984 2.54784e-17 -1.09063)
(-3.43909 0 -1.02959)
(-2.80373 0 -0.24174)
(-1.87682 0 1.89335)
(-0.826881 1.8003e-17 5.36094)
(-0.232655 0 8.96889)
(-0.646966 5.88752e-18 11.4806)
(-2.4705 0 12.3256)
(-5.90221 0 11.8441)
(-7.10886 -3.65706e-17 11.5409)
(-5.91568 0 10.0381)
(-2.11978 -5.62271e-17 9.18862)
(0.824622 7.13385e-17 5.97933)
(-0.237506 -7.76758e-17 2.08678)
(-4.98163 0 -1.11602)
(-11.2884 6.89487e-17 -2.00711)
(-15.3438 0 0.743056)
(-13.6235 4.61057e-17 5.02638)
(-7.20317 0 7.04748)
(-1.05769 -4.42286e-17 4.55036)