/*--------------------------------*- C++ -*----------------------------------*\
| =========                 |                                                 |
| \\      /  F ield         | OpenFOAM: The Open Source CFD Toolbox           |
|  \\    /   O peration     | Version:  2412                                  |
|   \\  /    A nd           | Website:  www.openfoam.com                      |
|    \\/     M anipulation  |                                                 |
\*---------------------------------------------------------------------------*/
FoamFile
{
    version     2.0;
    format      ascii;
    arch        "LSB;label=32;scalar=64";
    class       surfaceScalarField;
    location    "1.19";
    object      ddtCorrDdt0(phi);
}
// * * * * * * * * * * * * * * * * * * * * * * * * * * * * * * * * * * * * * //

dimensions      [0 3 -2 0 0 0 0];

oriented        oriented;

internalField   nonuniform List<scalar> 
24930
(
-0.0131813
-0.000820438
0.016016
-0.0122393
-0.0082478
0.00053213
-0.00321455
0.0106136
0.00519723
0.014464
0.0109237
0.00907306
0.0108609
-0.00240581
0.00464551
-0.0105084
-0.00398909
-0.00640557
-0.00977394
0.00755332
-0.0093392
0.0188018
-0.00187126
0.0250115
-0.0126187
-0.00232003
-0.008403
-0.0274124
-0.00654491
-0.0238327
-0.061406
0.006555
-0.0181107
0.011127
-0.00986255
0.000909848
0.0179066
-0.0153544
0.0215626
-0.0217262
0.010037
-0.0109689
-0.00547955
0.0365869
-0.0826381
0.0905446
-0.121655
0.0904384
-0.0964422
-0.0298554
0.198387
-0.250396
0.460109
-0.115952
0.0263481
0.0617173
-0.0306205
0.0791849
0.0893014
0.0435285
0.108736
0.0143268
0.061243
0.00609555
0.0139413
0.00454452
-0.0102371
-0.000167962
-0.0102656
-0.00364393
-0.0112723
-0.00579704
-0.0116367
-0.00576878
-0.00467825
-0.000355806
-0.00701416
-0.000438873
-0.0052838
0.000505779
-0.00260249
-0.000377589
-0.000999976
-0.00156898
0.00473193
-0.000243856
0.00510064
0.000252252
0.00358578
-5.18089e-05
0.00392254
0.000920488
-0.000643369
-0.0005339
-0.000958609
-0.00114303
0.00143034
-0.000377656
-0.00142331
-0.00164145
-0.000866704
-0.000738642
-0.00274799
-0.000511454
-0.00659903
-0.00171224
-0.0037623
-0.00102051
-0.00355682
-0.00128417
-0.00329551
-0.00216343
0.00441113
-0.000742205
0.00531108
-0.00116479
0.00599018
-0.00148979
0.00871113
-0.000312708
-0.000997228
-0.00129129
-0.0010397
-0.000741363
-0.00063423
0.00069278
-0.0024242
-0.000285684
0.001398
0.00032928
0.00102942
0.00041836
-0.00124268
-0.00192018
0.0028647
-0.0014349
0.00741539
-0.00140272
-0.000197581
-0.00239778
0.00327425
0.000108396
0.00124806
0.000415416
-0.00040925
0.00134431
0.00151123
0.00446193
-0.00183791
0.00572111
-0.00304397
0.00737551
-0.0013609
0.00815629
-0.00134292
0.00747228
-0.00192449
0.00355237
0.000550447
0.00122102
0.00247041
-0.00251619
0.00259159
-0.00330554
-0.000310833
-0.0049665
0.00422103
-0.00707008
0.00681071
-0.00567997
0.0018356
-0.00716631
-0.0329992
0.000738672
-0.0276942
0.00667441
-0.0240702
-0.00352618
0.00278996
0.0185558
-0.0195098
0.0202424
-0.0117911
0.0207161
-0.00173615
0.008581
0.015287
-0.00735957
-0.00214733
-0.0288014
0.0234541
-0.027004
0.0382041
0.0207006
-0.0704439
0.00182232
0.00870026
-0.00753426
0.0396916
-0.0660508
0.0452933
-0.170677
0.078277
0.0237168
-0.123873
0.119483
-0.130661
-0.00561925
0.104996
-0.00953021
0.0362994
0.00866665
-0.173949
-0.0806891
0.0597419
0.0207284
-0.0586423
-0.0116995
0.00787399
-0.0492223
0.0426569
-0.0112033
0.00536842
0.0501334
-0.0962187
0.102192
-0.0488165
0.18354
-0.0551095
0.099002
0.0540569
-0.160328
0.239226
-0.21592
0.0595901
-0.0413828
-0.18101
0.0313651
-0.0686199
0.0196153
-0.0201269
-0.0088845
0.0142879
-0.0140066
-0.00411147
0.00139296
0.00724212
0.013529
0.0144076
0.014205
0.0117941
0.0040656
0.000607013
-0.0085725
-0.0135017
-0.012196
-0.0230616
-0.00123007
-0.0246778
0.0150138
-0.0229155
0.0218036
-0.023491
0.0176921
-0.0497717
-0.018524
-0.0721308
0.0597254
-0.0977464
-0.0139812
-0.0229878
0.0148434
-0.00206924
0.0103532
-5.8776e-05
-0.00353902
0.0200415
-0.0182136
0.026327
-0.0189366
0.025016
0.00125684
0.0155902
0.0461559
-0.112477
0.0807413
-0.26955
0.0383661
-0.337949
-0.0792236
0.277126
-0.215759
0.848339
-0.0504698
0.230492
0.0828331
0.273032
0.0674635
0.382294
0.0275906
0.278446
0.0060025
0.113329
0.00392534
0.00662278
0.0036438
-0.0371773
-0.00153931
-0.0397937
-0.00511746
-0.0369186
-0.00694079
-0.0327907
-0.00602575
-0.0177925
-0.000293401
-0.0102378
-0.000963784
-0.0033718
-0.00028293
0.00228482
-0.00156555
0.00184
-0.00268888
0.00524618
-0.00115767
0.00465633
-0.000785039
0.00289921
-0.00115091
0.00400465
-0.000308137
0.000102366
-0.00221922
-0.00191927
-0.00268614
-0.00119649
-0.00206834
-0.00490626
-0.00351663
-0.00351603
-0.00260867
-0.00267157
-0.00268181
-0.00477109
-0.00407927
-0.00206664
-0.00342735
-0.00194137
-0.0039101
-0.00312762
-0.00473707
0.00397927
-0.00317803
0.00332851
-0.00361124
0.00240936
-0.003671
0.00458747
-0.00222916
0.000600355
-0.00302639
0.000787274
-0.00222224
0.00196796
-0.000645575
0.000114808
-0.00183637
0.00232025
-0.00158762
0.00292742
-0.00220896
0.000244886
-0.00572357
0.00267504
-0.00621565
0.00285946
-0.00718389
0.000108214
-0.00842133
0.00273382
-0.00471787
-0.000589001
-0.00167681
-0.00471565
0.00306488
-0.00473737
0.0108543
-0.00864003
0.0161682
-0.00928594
0.0203057
-0.00473927
0.0211337
-8.84296e-06
0.0179562
0.00265583
0.00880076
0.00928908
0.000862418
0.00972651
-0.00763111
0.00635465
-0.0100825
0.00110244
-0.0130024
0.00347966
-0.0158437
0.00624115
-0.0148721
0.00428141
-0.0142754
-0.0573876
0.00404084
-0.0243012
0.0272667
-0.0389269
0.0521048
-0.0227883
0.0693078
-0.0353375
0.0693912
-0.00772947
0.0633494
0.00588408
0.0294118
0.0475763
-0.0382774
0.0855651
-0.100049
0.0703754
-0.0651545
-0.0247747
0.0408709
-0.130817
0.0189189
0.00383424
0.00481526
0.0450355
-0.276539
0.366707
-0.512399
0.248244
0.0789673
-0.693833
0.344116
-0.379952
-0.0363991
0.480207
-0.00246807
0.00753667
-0.023706
-0.158463
-0.182627
0.173009
0.0466684
-0.254266
-0.037089
0.0796599
-0.120836
0.11552
-0.000193565
-0.122984
0.198296
-0.288233
0.378615
-0.248456
0.58191
-0.251432
0.413441
0.230662
-0.306182
0.95446
-0.520765
0.286286
-0.200585
-0.519489
0.0352798
-0.305276
0.0360727
-0.0209344
-0.00604006
0.0162656
-0.013889
0.00248118
0.000346331
0.0122854
0.010942
0.015109
0.00954725
0.00641268
-0.00191937
-0.0090867
-0.0134597
-0.0227627
-0.0138112
-0.0279858
0.000227489
-0.0265511
0.017122
-0.0272432
0.0186978
-0.0396656
0.0115088
-0.0731595
-0.0279013
-0.099023
-0.0171875
-0.0870082
-0.0086874
-0.0331024
0.0191326
0.0102138
0.0107514
0.0114494
-0.00744463
0.01995
-0.0213773
0.0213255
-0.0149554
0.0198599
0.0169521
0.0102264
0.0502135
-0.0835191
0.043843
-0.278492
-0.0516166
-0.415931
-0.113544
0.304554
-0.114406
0.987751
0.0205134
0.33095
0.0853161
0.512618
0.0506733
0.563945
0.0119611
0.349575
-0.00137067
0.112985
0.00201706
-0.0189064
0.00355794
-0.0660383
-0.00191303
-0.0655456
-0.00563775
-0.0557808
-0.00718543
-0.0460356
-0.00616309
-0.0254295
-0.000202897
-0.011279
-0.00121991
-0.00220552
-0.000763984
0.00569899
-0.00224453
0.00468438
-0.00354992
0.00723923
-0.00198576
0.00642531
-0.00168993
0.00389587
-0.00224557
0.00436123
-0.00146063
0.000444714
-0.00363821
-0.00275546
-0.00425428
-0.00225172
-0.00368761
-0.00567546
-0.0053735
-0.00429543
-0.00453166
-0.00244306
-0.00475753
-0.00427374
-0.00637891
-0.0020827
-0.00574885
-0.00182893
-0.00637302
-0.00399873
-0.00716601
0.00184231
-0.00544791
0.000797708
-0.00583366
-0.000341218
-0.00570637
0.00268805
-0.00394776
0.000254152
-0.00460487
0.000437337
-0.00364316
0.00243686
-0.00197467
0.00106073
-0.00349808
0.00334388
-0.00373869
0.0048577
-0.0052014
0.00230653
-0.0100448
0.00431895
-0.0116949
0.00473431
-0.0136919
0.00187416
-0.0152232
0.00273757
-0.0102218
-0.00295683
-0.00454857
-0.0114339
0.00481656
-0.0154053
0.0175268
-0.0206327
0.0268158
-0.0199949
0.032935
-0.0110798
0.0329436
0.000507462
0.0262922
0.00904324
0.0114578
0.0215562
-0.00211015
0.0223512
-0.0145956
0.0158594
-0.0183952
0.00532029
-0.0210537
0.0052069
-0.0230339
0.00809583
-0.0208251
0.00812467
-0.0171246
-0.0563782
0.0131159
-0.041958
0.055432
-0.0813892
0.10146
-0.0707383
0.128189
-0.0624564
0.122197
-0.00160202
0.105206
0.0228895
0.0460868
0.102042
-0.0798075
0.221131
-0.18433
0.165353
-0.107054
-0.116397
0.0644701
-0.268052
0.0322503
0.0121856
0.0193147
0.0506037
-0.482635
0.906829
-0.88855
0.589186
0.101933
-1.64112
0.588776
-0.858643
-0.00846871
1.06386
0.0200823
-0.0131563
-0.0611812
0.0537825
-0.275881
0.333116
0.0832908
-0.570626
-0.0536896
0.203423
-0.169645
0.220523
0.0507657
-0.331127
0.39439
-0.629411
0.690621
-0.558228
1.0112
-0.544567
0.805563
0.428347
-0.313787
2.05252
-0.877913
0.863046
-0.400598
-1.01037
0.00052331
-0.708543
0.0245545
-0.018772
-0.000288824
0.0190286
-0.0124026
0.00679484
-0.00153942
0.0123608
0.00526236
0.0109974
0.00179332
5.49956e-05
-0.00917781
-0.0144957
-0.018047
-0.0241931
-0.0155624
-0.0246665
-0.000320938
-0.0209572
0.0150541
-0.02411
0.0121362
-0.0422095
0.00575825
-0.0738073
-0.0286604
-0.0921689
-0.00868468
-0.0623301
-0.00176228
-0.0222664
0.0201576
0.0204698
0.0109302
0.0183124
-0.0101225
0.0173387
-0.0239367
0.0149384
-0.0147786
0.0117404
0.0152855
-0.0053216
0.0398599
-0.081619
0.0147587
-0.24589
-0.118512
-0.32685
-0.0965331
0.203153
0.0185664
0.889061
0.0406056
0.481223
0.0664992
0.532224
0.0270566
0.564766
-0.00542511
0.319288
-0.0092018
0.0671546
5.17106e-05
-0.0539443
0.0038189
-0.0905466
-0.00184008
-0.0835793
-0.00580918
-0.0670683
-0.00707824
-0.0528325
-0.00614783
-0.0288886
-8.75554e-05
-0.0104244
-0.00142143
-0.000560014
-0.00127242
0.00865953
-0.00290405
0.0072387
-0.00443188
0.00913156
-0.00286805
0.00830425
-0.00262832
0.00506715
-0.00340498
0.00475951
-0.00268216
0.00078405
-0.00508542
-0.00334546
-0.00589471
-0.00276195
-0.00536248
-0.00566303
-0.00729184
-0.00438746
-0.00654818
-0.00184974
-0.00690167
-0.00371092
-0.00875511
-0.00227889
-0.00816168
-0.00209209
-0.00885298
-0.00530272
-0.00967144
-0.000839133
-0.00776814
-0.00165169
-0.00805966
-0.00240009
-0.00776349
0.00116813
-0.00568861
-0.000550935
-0.00622794
-0.000283458
-0.00515309
0.00269368
-0.00343205
0.0020894
-0.00536371
0.00464336
-0.00619999
0.00724427
-0.00859198
0.00530897
-0.0148663
0.00751703
-0.0177643
0.00892437
-0.0208361
0.00462557
-0.0226874
0.00332664
-0.016236
-0.00615968
-0.00747608
-0.0209279
0.00662409
-0.030522
0.0244903
-0.0376353
0.0376552
-0.0343285
0.0453286
-0.0186386
0.0438837
0.0027766
0.0329555
0.0197264
0.0119691
0.0400003
-0.00717848
0.0407649
-0.0234545
0.0292326
-0.0273523
0.00955067
-0.0283243
0.00586191
-0.0278085
0.00732461
-0.0227655
0.00731625
-0.0145463
-0.0328925
0.0291257
-0.0766784
0.0925125
-0.147681
0.15946
-0.141165
0.193845
-0.0989505
0.176955
0.0142788
0.145445
0.0540726
0.0573602
0.184353
-0.132986
0.421164
-0.280147
0.303411
-0.148805
-0.261696
0.0892632
-0.469009
0.0282515
0.0488551
0.0266099
0.0440659
-0.641886
1.61481
-1.28673
1.16385
0.0464818
-2.92766
0.847742
-1.64818
0.0665593
1.82807
0.0607991
-0.00188165
-0.101732
0.300677
-0.362624
0.533978
0.126752
-1.01499
-0.0596794
0.377053
-0.190664
0.339371
0.148998
-0.656605
0.644411
-1.12599
1.03565
-0.962526
1.43918
-0.951622
1.25165
0.618177
-0.191589
3.43607
-1.10737
1.78844
-0.597318
-1.53175
-0.0638448
-1.24286
-0.0338951
-0.0160258
0.000219427
0.0188403
-0.0108934
0.00508946
-0.00369888
0.00739929
-0.00120835
0.00418568
-0.00657261
-0.00514292
-0.0163137
-0.0147637
-0.0221274
-0.0180291
-0.0175611
-0.0134111
-0.00272991
-0.00750849
0.0100272
-0.0111746
0.00411657
-0.0292897
0.000825591
-0.0530449
-0.0250933
-0.0638527
-0.00157316
-0.0304723
0.0055272
-0.00324098
0.0204568
0.0273068
0.0100954
0.0201937
-0.0126866
0.0119731
-0.0270306
0.00898283
-0.0175035
0.00921083
0.00859914
-0.00437786
0.024875
-0.0586877
0.000982062
-0.162379
-0.0945688
-0.136008
-0.0511405
0.329755
0.0948663
0.842495
0.0474624
0.686352
0.00650312
0.547673
0.00033598
0.395817
-0.024266
0.216893
-0.0169042
-0.00384286
-0.00161528
-0.0882843
0.00443346
-0.105874
-0.00141222
-0.0919085
-0.00579937
-0.0703348
-0.00681807
-0.0534537
-0.00605144
-0.0284884
-1.555e-05
-0.00779472
-0.00163765
0.00174281
-0.00189818
0.0114412
-0.00366641
0.00966607
-0.00543734
0.0108682
-0.0038958
0.0100988
-0.00369012
0.00621874
-0.00469469
0.00514563
-0.00403963
0.00104687
-0.00664857
-0.00396423
-0.0076715
-0.00331703
-0.00716521
-0.00568421
-0.00933614
-0.00450189
-0.00870904
-0.00133461
-0.00917364
-0.00323865
-0.0112551
-0.00259836
-0.0107025
-0.00247772
-0.011407
-0.00659699
-0.0122723
-0.00304797
-0.0101551
-0.00331713
-0.0103232
-0.00392711
-0.00987255
5.17261e-06
-0.00748357
-0.00114087
-0.00793628
-0.000942539
-0.00680461
0.00301332
-0.0050955
0.00332797
-0.00751157
0.00633074
-0.00902081
0.0102434
-0.0124033
0.00913289
-0.020183
0.0117309
-0.0243952
0.0141366
-0.0285868
0.00848137
-0.0308131
0.00404736
-0.0228444
-0.0107962
-0.0108156
-0.0338484
0.00822751
-0.0506868
0.0313471
-0.0598031
0.0481687
-0.0525434
0.0569019
-0.027414
0.0533163
0.00688966
0.0375231
0.0348522
0.0101841
0.0640552
-0.0141893
0.0644137
-0.0334093
0.0452712
-0.0364645
0.0126735
-0.0342389
0.00352377
-0.0294272
0.00271268
-0.0200009
0.00324621
-0.00533409
-0.039349
0.0528542
-0.127172
0.138914
-0.23699
0.226352
-0.232074
0.264846
-0.139263
0.231328
0.0465381
0.181365
0.103689
0.0606938
0.298566
-0.199004
0.689069
-0.385077
0.479935
-0.186191
-0.471674
0.110258
-0.725827
-0.00694826
0.139888
0.007147
0.0215768
-0.689048
2.35147
-1.68404
2.08348
-0.164187
-4.39196
1.1154
-2.91359
0.188711
2.73365
0.120429
0.0730189
-0.144863
0.603366
-0.450852
0.776019
0.17575
-1.5911
-0.0532436
0.591584
-0.180774
0.45399
0.295523
-1.11549
0.94578
-1.77785
1.40131
-1.43161
1.85584
-1.40422
1.68818
0.782255
-0.00590656
5.13445
-1.2517
3.0456
-0.788317
-2.00795
-0.139909
-1.89265
-0.144916
-0.0138834
-0.00428353
0.0161346
-0.010136
-0.00145869
-0.00578135
-0.000174495
-0.00653137
-0.00257423
-0.0129565
-0.0077638
-0.0212306
-0.0107713
-0.0246531
-0.0071334
-0.0193662
0.00225998
-0.00651059
0.0104748
0.00308948
0.00837981
-0.00405435
-0.00608564
-0.0035086
-0.0208796
-0.0199864
-0.0273338
0.00349951
0.000426914
0.01116
0.0146164
0.0191794
0.0290674
0.00764595
0.0169322
-0.0157383
0.00461719
-0.0298551
0.00391913
-0.0211162
0.0118497
0.00194776
0.0102651
0.013411
-0.0161722
0.0016982
-0.0576847
-0.0527861
0.0253594
-0.000669564
0.40812
0.098762
0.7161
0.0491774
0.583688
-0.0131933
0.4079
-0.0368904
0.202037
-0.0414493
0.0909615
-0.022962
-0.0692456
-0.00236814
-0.111491
0.00549022
-0.107053
-0.000661492
-0.088409
-0.00566309
-0.0649764
-0.00645525
-0.0480667
-0.00587746
-0.0245548
-1.48258e-05
-0.00373297
-0.00190467
0.00439899
-0.00267477
0.0136624
-0.00457131
0.0114676
-0.0065896
0.0118912
-0.00509566
0.0113254
-0.00490793
0.00709632
-0.0061478
0.00543958
-0.00557292
0.00139895
-0.0083587
-0.00427103
-0.00960511
-0.00354569
-0.00911406
-0.00536001
-0.0115152
-0.00430449
-0.0110199
-0.000625972
-0.0115839
-0.00260279
-0.0138809
-0.00280673
-0.0133679
-0.00274932
-0.014044
-0.00761906
-0.0149504
-0.00465591
-0.0126022
-0.00441427
-0.0126315
-0.00530451
-0.0120465
-0.00118216
-0.00935879
-0.00186019
-0.00975321
-0.00171928
-0.00861721
0.00330654
-0.00696254
0.00476756
-0.00991636
0.00846571
-0.0121549
0.0139307
-0.0165598
0.0139583
-0.0258891
0.0171939
-0.0314735
0.020697
-0.0368452
0.0136247
-0.0395636
0.00514669
-0.0301169
-0.0166819
-0.0147608
-0.0500716
0.00929181
-0.0758623
0.0376593
-0.0869596
0.0578958
-0.0741362
0.0672342
-0.0367316
0.0609616
0.013689
0.0399577
0.0550677
0.00636055
0.0941607
-0.0226829
0.0927333
-0.043803
0.062999
-0.0451658
0.0141094
-0.0383017
-0.0033525
-0.0274023
-0.00790954
-0.0117469
-0.00654981
0.0108852
-0.0641158
0.0848832
-0.193393
0.200166
-0.355783
0.300854
-0.336311
0.338658
-0.178913
0.282519
0.101235
0.211155
0.174666
0.0546157
0.448012
-0.277905
1.02956
-0.495789
0.687384
-0.216366
-0.762292
0.120231
-1.01862
-0.0809277
0.312876
-0.0535758
-0.0151614
-0.545746
2.88647
-2.06073
3.51625
-0.649087
-5.7437
1.36563
-4.90682
0.355117
3.71994
0.199162
0.235354
-0.189721
1.02524
-0.545965
1.06351
0.220545
-2.30392
-0.0342173
0.830942
-0.137373
0.543094
0.494453
-1.72768
1.29714
-2.58107
1.79043
-1.93884
2.24636
-1.85956
2.09078
0.936856
0.238138
6.96191
-1.31661
4.61067
-0.94407
-2.39425
-0.220445
-2.6169
-0.303734
-0.0126805
-0.00999178
0.0123575
-0.00972875
-0.00855896
-0.00718575
-0.00690357
-0.0094877
-0.00721555
-0.0157111
-0.00786391
-0.0223212
-0.00498628
-0.0244031
0.00395408
-0.0200274
0.0165503
-0.0105866
0.0264123
-0.00451202
0.0267471
-0.0115863
0.0172205
-0.00796166
0.00951326
-0.0156698
0.00465093
0.00559452
0.0222123
0.0135751
0.0247113
0.0159623
0.0244535
0.00368857
0.00889337
-0.0188891
-0.00385
-0.0321415
-0.000381824
-0.024019
0.0155228
-0.00307999
0.0263758
0.00762168
0.021684
0.0113306
0.0193066
-0.0109699
0.10084
0.0341968
0.358298
0.0897626
0.49611
0.031878
0.330765
-0.0369795
0.145488
-0.0677939
-0.0134346
-0.0461619
-0.0778988
-0.0251706
-0.106319
-0.00162462
-0.111722
0.00693403
-0.0918738
0.000292348
-0.0729218
-0.00550827
-0.0515492
-0.00607695
-0.0375388
-0.00566177
-0.0177053
-0.000114343
0.00132746
-0.00223216
0.00713979
-0.00359519
0.0151571
-0.00561053
0.0125285
-0.00786155
0.0121201
-0.00644079
0.0119174
-0.00625423
0.00770066
-0.00772926
0.00569639
-0.00724828
0.00192985
-0.0101729
-0.0041401
-0.0116467
-0.00331442
-0.0111606
-0.00455131
-0.0137743
-0.00364968
-0.0134266
0.000381008
-0.0140799
-0.00168717
-0.0165741
-0.00274936
-0.0161014
-0.00274769
-0.016705
-0.00822871
-0.0176413
-0.00581763
-0.0150574
-0.00521987
-0.0149375
-0.00658382
-0.0142456
-0.00243106
-0.0112826
-0.00270354
-0.0116464
-0.00259457
-0.0105537
0.00358792
-0.00898268
0.00641836
-0.0124997
0.0110548
-0.0154901
0.0183089
-0.0209106
0.0198211
-0.0317999
0.0239703
-0.0388165
0.0287042
-0.0454568
0.0201737
-0.0488489
0.00686691
-0.0381005
-0.0235923
-0.0195398
-0.0694105
0.00942991
-0.105929
0.0429292
-0.118981
0.0663301
-0.0988463
0.0759088
-0.0462507
0.0666035
0.0235165
0.0403505
0.0804517
0.000875927
0.129789
-0.0320924
0.124845
-0.0540954
0.0813494
-0.0529032
0.013027
-0.040111
-0.0160916
-0.0213894
-0.0263848
0.00242648
-0.0239219
0.034602
-0.100839
0.125388
-0.275772
0.251281
-0.484907
0.381205
-0.469968
0.412026
-0.211486
0.327314
0.184331
0.23312
0.268386
0.0383005
0.635001
-0.368854
1.44443
-0.608636
0.915872
-0.238302
-1.14363
0.11047
-1.32079
-0.189154
0.582052
-0.169967
-0.0445
-0.157776
2.92047
-2.43952
5.70784
-1.56089
-6.55759
1.56719
-8.00511
0.5583
4.70178
0.301928
0.497342
-0.23186
1.5919
-0.656589
1.41505
0.255184
-3.15752
-0.00257534
1.07224
-0.0579204
0.583383
0.744097
-2.5089
1.68988
-3.52717
2.18063
-2.44437
1.98586
-1.62322
2.45948
0.43809
0.483943
8.89933
-1.33195
6.43829
-1.07518
-2.66574
-0.29619
-3.3964
-0.494559
-0.012116
-0.0125743
0.00951022
-0.00894821
-0.0119029
-0.0074194
-0.0101942
-0.00970724
-0.00912892
-0.0145387
-0.00693137
-0.0193073
-0.000803863
-0.0209349
0.0103894
-0.0187609
0.0236506
-0.0137133
0.0337133
-0.0114458
0.0360538
-0.0180207
0.0310274
-0.0129907
0.027735
-0.0138541
0.0230984
0.00417568
0.0302461
0.012034
0.0242097
0.0107974
0.0140468
-0.00133151
-0.00217444
-0.0216705
-0.0122432
-0.0332389
-0.00441539
-0.0255392
0.0162545
-0.00584138
0.0329652
0.0063803
0.0358831
0.0229262
0.0420226
0.0220508
0.0835134
0.0526817
0.205171
0.0731953
0.217707
0.00960089
0.0378064
-0.0598177
-0.119634
-0.0820934
-0.19701
-0.0567317
-0.18485
-0.0219031
-0.14187
0.00125298
-0.0912534
0.00846511
-0.0615915
0.00117185
-0.0485648
-0.0055441
-0.0319718
-0.00582738
-0.0235672
-0.0054865
-0.00907406
-0.000373106
0.00677069
-0.00265146
0.00964144
-0.00466084
0.0157783
-0.00678326
0.0127905
-0.00922811
0.0115611
-0.00790366
0.0118806
-0.00770219
0.00806882
-0.00940531
0.00598286
-0.00903442
0.00270328
-0.0120518
-0.0034847
-0.0137501
-0.00253511
-0.0132587
-0.00317608
-0.0160605
-0.0024472
-0.0158763
0.0017602
-0.0166108
-0.000408315
-0.0192789
-0.00232962
-0.0188527
-0.00240884
-0.0193425
-0.00838254
-0.020301
-0.00660811
-0.017487
-0.00579478
-0.0172101
-0.00777265
-0.0164434
-0.00378836
-0.0132312
-0.00371465
-0.0135817
-0.00358287
-0.0125664
0.00384055
-0.0110882
0.00825921
-0.0151578
0.0140631
-0.0188845
0.0233318
-0.0252732
0.0266911
-0.0377006
0.0320747
-0.0461994
0.0382549
-0.0542304
0.0283208
-0.0585691
0.00952529
-0.046862
-0.0311541
-0.0254323
-0.0914834
0.00819494
-0.14061
0.0466276
-0.155661
0.0730044
-0.12644
0.0826504
-0.0557575
0.0702751
0.0364462
0.0390934
0.110764
-0.00560448
0.170333
-0.0416829
0.159979
-0.0637494
0.0995649
-0.0592197
0.00862319
-0.0394794
-0.0356961
-0.0113829
-0.054326
0.0224732
-0.0508333
0.0657702
-0.149374
0.17444
-0.375437
0.322633
-0.636198
0.46499
-0.616226
0.480952
-0.229157
0.362618
0.300866
0.246724
0.383779
0.0127259
0.860444
-0.469185
1.93406
-0.719887
1.15455
-0.255373
-1.61974
0.0728315
-1.59919
-0.314112
0.936231
-0.3285
-0.040777
0.425781
2.21662
-2.91625
8.94995
-3.00493
-6.40098
1.68544
-12.6534
0.784575
5.57324
0.426546
0.860326
-0.268887
2.32096
-0.786348
1.85451
0.270456
-4.15244
0.0413971
1.28402
0.060786
0.547906
1.04916
-3.47415
2.1145
-4.59225
2.4599
-2.80541
2.82862
-1.98216
2.77381
0.491511
0.732688
10.9146
-1.31443
8.49714
-1.16451
-2.83161
-0.366136
-4.19494
-0.693051
-0.0118932
-0.0102211
0.00946747
-0.00790927
-0.0101599
-0.00673197
-0.00981181
-0.00786429
-0.00923055
-0.01051
-0.00689701
-0.0133846
-0.000870136
-0.0150507
0.00919601
-0.0156042
0.0204379
-0.01514
0.0289937
-0.0166544
0.0322407
-0.0229733
0.0305711
-0.0183553
0.0296998
-0.015029
0.0252622
-0.000426216
0.0248903
0.00696723
0.0145881
0.00424117
0.000539941
-0.00667048
-0.0133644
-0.0237595
-0.0190181
-0.0333155
-0.00821205
-0.0262719
0.0123235
-0.00815123
0.0262087
0.00583352
0.02255
0.0297676
0.0138469
0.0420331
0.00185687
0.056269
0.0107909
0.0509806
-0.0540269
-0.0124412
-0.217306
-0.0752695
-0.320311
-0.0874781
-0.313067
-0.0565905
-0.226472
-0.0179577
-0.128646
0.0046624
-0.0537831
0.00924381
-0.0199491
0.00156119
-0.0212713
-0.00605186
-0.0111867
-0.00588991
-0.00830171
-0.00546072
-0.000197579
-0.000868114
0.0117552
-0.00320867
0.0115232
-0.00587346
0.01542
-0.00809008
0.0122518
-0.0106608
0.0103139
-0.00945019
0.011299
-0.00922009
0.00827945
-0.0111373
0.00638014
-0.010895
0.00377265
-0.0139524
-0.00224838
-0.0158651
-0.00115656
-0.015359
-0.00119778
-0.018319
-0.00065401
-0.0183139
0.0035494
-0.0191244
0.00127512
-0.0219384
-0.00148405
-0.0215704
-0.00169387
-0.0219102
-0.00804313
-0.0228865
-0.00701294
-0.0198606
-0.00613308
-0.0194252
-0.00887833
-0.0186206
-0.00528077
-0.0151862
-0.00492052
-0.0155271
-0.00470041
-0.0146048
0.00402968
-0.0132027
0.010237
-0.0177632
0.0174117
-0.0221798
0.0289114
-0.0294514
0.0344938
-0.0433611
0.041488
-0.0533627
0.0494049
-0.0629393
0.038231
-0.0686168
0.0135528
-0.0564778
-0.0388219
-0.0327453
-0.115688
0.00510069
-0.179464
0.0482182
-0.196746
0.0775154
-0.156828
0.0873495
-0.0653428
0.0722618
0.0521464
0.0368192
0.145368
-0.0122516
0.214941
-0.0506577
0.197382
-0.0722132
0.117129
-0.0638346
0.00038123
-0.0364815
-0.0628056
0.00229724
-0.0930773
0.0480461
-0.0891285
0.104075
-0.210853
0.231448
-0.493284
0.399351
-0.807031
0.548945
-0.770003
0.540882
-0.222787
0.385913
0.453851
0.253081
0.516157
-0.0190128
1.12327
-0.574475
2.49731
-0.826754
1.39412
-0.276591
-2.18127
0.000669189
-1.82371
-0.433142
1.33503
-0.634646
0.148993
0.975267
0.662278
-3.61169
13.4257
-4.85434
-5.089
1.70948
-19.1686
1.02058
6.23047
0.580284
1.30566
-0.286317
3.22079
-0.93443
2.41987
0.26035
-5.28132
0.0983852
1.42813
0.220093
0.409242
1.39672
-4.62379
2.55593
-5.75109
2.81645
-3.08286
3.09298
-2.24042
3.06153
0.520288
0.969291
12.9699
-1.28653
10.7659
-1.23043
-2.90459
-0.433603
-4.99169
-0.868048
-0.0121952
-0.00489057
0.0126361
-0.00795428
-0.00561857
-0.00638711
-0.00766949
-0.00561345
-0.00904414
-0.00568274
-0.00872542
-0.0067001
-0.00540336
-0.00846985
0.00103096
-0.0114534
0.00834514
-0.01493
0.0140885
-0.0197198
0.0171101
-0.0261836
0.0176443
-0.0232432
0.0182749
-0.018313
0.01482
-0.00683556
0.0110402
-1.05147e-05
0.000675453
-0.00250243
-0.0120497
-0.0113841
-0.0214276
-0.0250137
-0.0223757
-0.0331096
-0.0106092
-0.0277984
0.00574274
-0.0127053
0.0110341
0.00162641
-0.0063667
0.0271888
-0.038441
0.044743
-0.0946502
0.047506
-0.158466
0.0272322
-0.255956
-0.0291511
-0.378858
-0.0802604
-0.418367
-0.0828859
-0.342846
-0.0490336
-0.206601
-0.0111525
-0.0813135
0.00835697
-0.00300544
0.01069
0.023237
-0.0010395
0.0120142
-0.00722863
0.00739561
-0.00646658
0.00519416
-0.00570315
0.00759436
-0.00168097
0.0154417
-0.00395735
0.0123494
-0.00723385
0.0140145
-0.00953283
0.0109223
-0.0121299
0.00856021
-0.0110406
0.010327
-0.010773
0.00844295
-0.012884
0.00697355
-0.0127905
0.00517373
-0.0158313
-0.000409695
-0.0179412
0.000837685
-0.0174139
0.00138231
-0.0204987
0.00173701
-0.0206889
0.00576028
-0.0215753
0.00337645
-0.0245046
-0.000169035
-0.0242142
-0.000577138
-0.0243776
-0.00718732
-0.0253726
-0.00703134
-0.0221677
-0.00626146
-0.0215757
-0.00992497
-0.0207711
-0.00693649
-0.0171384
-0.00634914
-0.0174541
-0.00597513
-0.0166179
0.00409874
-0.0152431
0.0122647
-0.019867
0.0206527
-0.0252202
0.035255
-0.0332517
0.0431193
-0.0485507
0.0521629
-0.0601499
0.0622806
-0.0714301
0.0502228
-0.078881
0.0194302
-0.0670204
-0.045875
-0.041779
-0.141202
-0.000339089
-0.221866
0.0472043
-0.241976
0.0795772
-0.190134
0.0901037
-0.0754799
0.0731081
0.069831
0.0343634
0.183187
-0.0181326
0.262705
-0.0582545
0.236474
-0.0790639
0.133867
-0.0667402
-0.0118064
-0.0315158
-0.0976548
0.0189497
-0.143684
0.0783715
-0.140598
0.148745
-0.287011
0.295656
-0.630186
0.479861
-0.994147
0.629046
-0.923663
0.587059
-0.182487
0.395729
0.643036
0.255518
0.656068
-0.0511761
1.42003
-0.678159
3.13229
-0.927729
1.63052
-0.31763
-2.80478
-0.110563
-1.97514
-0.535618
1.72291
-0.888206
0.488312
1.15049
-1.3157
-4.48513
18.9392
-6.56448
-2.94319
1.68547
-27.3732
1.26122
6.61998
0.75242
1.82001
-0.283062
4.29323
-1.08872
3.13787
0.220259
-6.52081
0.169482
1.46062
0.42226
0.138131
1.79393
-5.97365
2.99612
-6.95248
3.09714
-3.20189
3.30949
-2.43981
3.34448
0.483985
1.20973
15.0688
-1.25962
13.2494
-1.28877
-2.89353
-0.510416
-5.76967
-0.987243
-0.0136349
-0.000476836
0.0174591
-0.0107529
-0.00195869
-0.00798279
-0.00596372
-0.00488682
-0.00930043
-0.00230047
-0.0115171
-0.0015009
-0.0117733
-0.00307208
-0.00982078
-0.00755814
-0.00697974
-0.0137138
-0.00448066
-0.0208466
-0.00243696
-0.0276591
-0.000663065
-0.0268116
0.00117962
-0.0220734
-0.000476383
-0.0130776
-0.00414815
-0.00661036
-0.0116013
-0.00777629
-0.0198698
-0.014396
-0.0238635
-0.0252985
-0.020795
-0.033401
-0.0094912
-0.03166
0.00151554
-0.0217605
-0.0018309
-0.00933804
-0.0304218
0.0137466
-0.0795293
0.0326498
-0.157823
0.0307029
-0.251131
0.00628587
-0.346735
-0.0382623
-0.42025
-0.0736668
-0.406207
-0.0683793
-0.29145
-0.0358983
-0.138126
-0.00295325
-0.0147863
0.0107161
0.0487635
0.00884348
0.0586529
-0.00264614
0.0364429
-0.0100259
0.0206864
-0.00783181
0.0145473
-0.00629988
0.0129148
-0.00293328
0.0173862
-0.00498425
0.011804
-0.00875503
0.0116056
-0.0111111
0.00873854
-0.0136067
0.00653528
-0.0126324
0.00918878
-0.0123255
0.00868909
-0.0146048
0.0078412
-0.0146813
0.00691381
-0.0176481
0.00200573
-0.0199315
0.0034193
-0.0193815
0.00451494
-0.0225571
0.00468712
-0.0229599
0.00837136
-0.0239295
0.00587549
-0.0269433
0.00163301
-0.0267582
0.000949351
-0.0267312
-0.00581164
-0.027752
-0.00667309
-0.0244173
-0.00621783
-0.0236737
-0.0109386
-0.0229041
-0.00878361
-0.0190903
-0.00803337
-0.0193415
-0.00744943
-0.0185575
0.00396711
-0.0171349
0.0142273
-0.0226904
0.0246596
-0.0278686
0.0411916
-0.036497
0.0524221
-0.0530853
0.0640584
-0.0662218
0.0768667
-0.0795388
0.0645757
-0.0892229
0.0276624
-0.0785386
-0.0514128
-0.0528056
-0.166983
-0.00854449
-0.267051
0.0431773
-0.291108
0.0790624
-0.22676
0.0912286
-0.0870823
0.0735654
0.0882767
0.0326588
0.223155
-0.022337
0.312735
-0.0638677
0.276976
-0.0841421
0.150058
-0.0682738
-0.0275587
-0.0253139
-0.140088
0.0375311
-0.206886
0.112327
-0.206959
0.198682
-0.379504
0.370395
-0.791483
0.561478
-1.18808
0.700577
-1.06769
0.615062
-0.0986394
0.391689
0.864161
0.259777
0.787963
-0.0755252
1.74478
-0.771704
3.83677
-1.02392
1.86897
-0.398121
-3.44372
-0.262955
-2.05166
-0.621651
2.04242
-1.05406
0.905639
0.817163
-3.12073
-5.09821
24.726
-7.24356
-0.73709
1.70947
-36.2774
1.50493
6.78454
0.946372
2.38479
-0.227451
5.50342
-1.22646
4.0444
0.149213
-7.8235
0.258107
1.33344
0.685158
-0.308456
2.23626
-7.49816
3.41331
-8.12847
3.33081
-3.13929
3.5358
-2.62624
3.62802
0.391183
1.44983
17.2091
-1.24093
15.9559
-1.3797
-2.77374
-0.619223
-6.52949
-1.02892
-0.0165597
0.000565801
0.0214992
-0.0166812
-0.00108186
-0.0122028
-0.00527936
-0.0068354
-0.00924189
-0.00187203
-0.0129603
0.000667417
-0.0159252
-0.000194808
-0.0176194
-0.00495301
-0.0184257
-0.0122392
-0.0186535
-0.0205527
-0.0178094
-0.0276433
-0.0155988
-0.0286294
-0.012845
-0.0248692
-0.0125198
-0.0174999
-0.0142947
-0.0108842
-0.0178145
-0.0101048
-0.0209326
-0.0146736
-0.0200859
-0.0241633
-0.0140579
-0.0341986
-0.00338215
-0.0380971
0.00440148
-0.0355138
-0.00232238
-0.0272374
-0.0323166
-0.00853968
-0.0831708
0.0104976
-0.1589
0.010546
-0.246864
-0.00869615
-0.320104
-0.0379833
-0.350443
-0.0582546
-0.30429
-0.0484938
-0.183492
-0.0205257
-0.0458179
0.00403208
0.0519298
0.0104906
0.088748
0.00435875
0.0799161
-0.00679294
0.0482588
-0.0129691
0.0264038
-0.00985944
0.0180033
-0.00767787
0.0150401
-0.00449936
0.0163187
-0.00629569
0.00993896
-0.0104303
0.00867466
-0.0128062
0.0055187
-0.0150695
0.00440663
-0.0141881
0.00812813
-0.0138485
0.00913948
-0.0162668
0.00903573
-0.0165328
0.00896146
-0.0193712
0.00491354
-0.021799
0.00650591
-0.0212319
0.00809436
-0.024467
0.00810117
-0.0251017
0.0113198
-0.0261704
0.00871098
-0.0292411
0.00390332
-0.029197
0.00286694
-0.028983
-0.00394456
-0.0300425
-0.00596531
-0.0266433
-0.00605346
-0.025754
-0.0119509
-0.025047
-0.0108522
-0.0210592
-0.0100124
-0.0211797
-0.00917926
-0.0203869