/*--------------------------------*- C++ -*----------------------------------*\
| =========                 |                                                 |
| \\      /  F ield         | OpenFOAM: The Open Source CFD Toolbox           |
|  \\    /   O peration     | Version:  2412                                  |
|   \\  /    A nd           | Website:  www.openfoam.com                      |
|    \\/     M anipulation  |                                                 |
\*---------------------------------------------------------------------------*/
FoamFile
{
    version     2.0;
    format      ascii;
    arch        "LSB;label=32;scalar=64";
    class       surfaceScalarField;
    location    "1.19";
    object      phi;
}
// * * * * * * * * * * * * * * * * * * * * * * * * * * * * * * * * * * * * * //

dimensions      [0 3 -1 0 0 0 0];

oriented        oriented;

internalField   nonuniform List<scalar> 
24930
(
0.0158911
0.0211962
-0.0370904
0.00652952
0.00936158
0.00299537
0.00353416
0.00167282
0.00132256
0.00107359
0.000599233
0.000723702
0.000349901
0.000488388
0.000235324
0.000319669
0.000168726
0.000194557
0.000125117
9.98979e-05
9.46681e-05
2.65464e-05
7.33645e-05
-3.03135e-05
5.68777e-05
-7.49456e-05
4.46439e-05
-0.000110102
3.51273e-05
-0.000136088
2.59816e-05
-0.000157203
2.11079e-05
-0.000172677
1.54934e-05
-0.000184236
1.1558e-05
-0.000192238
7.99985e-06
-0.000197402
5.15417e-06
-0.000200221
2.81796e-06
-0.000201091
9.27997e-07
-0.000200425
-5.38514e-07
-0.000198391
-1.97784e-06
-0.000195156
-3.57417e-06
-0.000190865
-5.00121e-06
-0.000186036
-5.27888e-06
-0.000180791
-5.07964e-06
-0.000175037
-5.43269e-06
-0.000168982
-5.87934e-06
-0.000162783
-6.13023e-06
-0.000156537
-6.22799e-06
-0.000150294
-6.24242e-06
-0.000144075
-6.22781e-06
-0.000137961
-6.13152e-06
-0.000132
-5.98056e-06
-0.000126195
-5.82951e-06
-0.00012059
-5.62306e-06
-0.00011517
-5.42336e-06
-0.000109967
-5.20876e-06
-0.000104979
-4.98907e-06
-0.000100186
-4.79867e-06
-9.55771e-05
-4.61521e-06
-9.11358e-05
-4.44201e-06
-8.68426e-05
-4.29513e-06
-8.26968e-05
-4.14579e-06
-7.87021e-05
-3.9927e-06
-7.48986e-05
-3.81087e-06
-7.13438e-05
-3.55878e-06
-6.80944e-05
-3.25343e-06
-6.52318e-05
-2.87015e-06
-6.28172e-05
-2.41513e-06
-6.08819e-05
-1.93929e-06
-5.94343e-05
-1.4538e-06
-5.83986e-05
-1.03686e-06
-5.76212e-05
-7.84764e-07
-5.68193e-05
-8.06794e-07
-5.55178e-05
-1.30017e-06
-5.30259e-05
-2.49717e-06
-4.84065e-05
-4.62141e-06
-4.05341e-05
-7.87237e-06
-2.83528e-05
-1.21854e-05
-1.1186e-05
-1.71677e-05
1.05465e-05
-2.17316e-05
3.49033e-05
-2.43588e-05
5.77304e-05
-2.28236e-05
7.36965e-05
-1.59615e-05
7.75524e-05
-3.85742e-06
6.72733e-05
1.02848e-05
4.55911e-05
2.16883e-05
1.99022e-05
2.56951e-05
-2.50707e-06
2.24244e-05
-1.92911e-05
1.67956e-05
-3.09702e-05
1.16913e-05
-4.36924e-05
1.27402e-05
-5.8634e-05
1.49551e-05
-7.54167e-05
1.67958e-05
-8.65478e-05
1.11414e-05
-8.50215e-05
-1.5176e-06
-5.88054e-05
-2.6215e-05
-4.39541e-06
-5.44066e-05
7.44735e-05
-7.88672e-05
0.00016609
-9.16131e-05
0.000245
-7.89118e-05
0.000280606
-3.56096e-05
0.000285851
-5.20146e-06
0.000264482
2.13735e-05
0.00018447
8.00499e-05
6.27266e-07
0.000183849
-0.000267044
0.000267665
-0.000628247
0.000361194
-0.00103135
0.000403096
-0.00139662
0.000365261
-0.00179235
0.000395704
-0.00228171
0.000489364
-0.00265756
0.000375753
-0.00241635
-0.0002412
-0.00169522
-0.00072103
-6.23986e-05
-0.00163288
0.00163406
-0.00169646
0.00300678
-0.00137267
0.0045273
-0.00152069
0.00207313
0.00245425
4.29722e-05
0.00203022
0.000700483
-0.000657556
0.000594718
0.000106082
0.0017769
-0.00118217
0.00223876
-0.000461993
0.00176365
0.000475193
0.00223766
-0.000474047
0.00304057
-0.000802936
0.00307466
-3.3964e-05
0.00260611
0.000468521
0.00297025
-0.000364211
0.00425359
-0.00128325
0.00295896
0.00129456
-0.000571472
0.00353039
-0.00134875
0.000777284
0.00082548
-0.00217426
-0.00133668
0.0335937
0.0302403
-0.0426377
0.0225141
0.0204411
0.0142073
0.011841
0.00910473
0.0064251
0.00611326
0.00359073
0.00427915
0.00218403
0.00306267
0.00145183
0.0022021
0.00102931
0.00156659
0.000760639
0.00108323
0.00057804
0.000709078
0.000447541
0.000415401
0.000350565
0.000183472
0.000276601
4.90307e-06
0.000213702
-0.00015189
0.000182817
-0.000273294
0.000142502
-0.000368535
0.000110745
-0.000443228
8.62652e-05
-0.000500794
6.55841e-05
-0.000544202
4.85541e-05
-0.000575895
3.44934e-05
-0.000597471
2.25252e-05
-0.00061096
1.30125e-05
-0.000617481
4.53678e-06
-0.000618351
-3.05064e-06
-0.000614326
-9.1464e-06
-0.000606468
-1.30525e-05
-0.00059556
-1.60172e-05
-0.000582096
-1.8996e-05
-0.000566684
-2.1395e-05
-0.000549875
-2.2996e-05
-0.000532108
-2.40191e-05
-0.000513698
-2.46703e-05
-0.000494859
-2.50782e-05
-0.000475904
-2.50954e-05
-0.000457064
-2.48246e-05
-0.000438426
-2.44668e-05
-0.000420158
-2.39041e-05
-0.000402312
-2.3276e-05
-0.000384993
-2.25421e-05
-0.000368242
-2.17501e-05
-0.000352022
-2.10242e-05
-0.00033631
-2.0336e-05
-0.000321078
-1.96821e-05
-0.00030628
-1.90996e-05
-0.000291919
-1.85182e-05
-0.000278034
-1.78848e-05
-0.000264752
-1.70977e-05
-0.000252288
-1.60318e-05
-0.000240857
-1.46886e-05
-0.000230732
-1.30036e-05
-0.000222148
-1.10083e-05
-0.00021523
-8.86434e-06
-0.000209998
-6.69542e-06
-0.000206214
-4.82844e-06
-0.000203335
-3.66738e-06
-0.000200372
-3.77841e-06
-0.000195676
-5.99952e-06
-0.000186837
-1.13375e-05
-0.000170581
-2.08824e-05
-0.000143035
-3.54167e-05
-0.000100518
-5.4702e-05
-4.06877e-05
-7.69984e-05
3.51317e-05
-9.75446e-05
0.000120488
-0.000109711
0.000201792
-0.000104123
0.000260716
-7.48727e-05
0.000278956
-2.2085e-05
0.000247989
4.12667e-05
0.000175196
9.45036e-05
8.4412e-05
0.000116497
3.8445e-07
0.00010648
-6.64985e-05
8.37079e-05
-0.000115948
6.11666e-05
-0.000164936
6.17581e-05
-0.000218489
6.85315e-05
-0.000273212
7.15367e-05
-0.000306451
4.43932e-05
-0.000293117
-1.48415e-05
-0.000198097
-0.000121231
-9.39187e-06
-0.000243103
0.000257372
-0.000345629
0.000567446
-0.000401683
0.000832517
-0.000343969
0.000956331
-0.000159428
0.000958306
-7.14144e-06
0.000843493
0.000136169
0.000498286
0.000425241
-0.000184775
0.000866903
-0.0011509
0.00123378
-0.0023792
0.00158948
-0.00372057
0.00174443
-0.00489904
0.00154372
-0.00611381
0.00161044
-0.00764687
0.00202239
-0.00881522
0.0015442
-0.00789945
-0.00115705
-0.00549194
-0.00312854
-0.000159484
-0.00696531
0.00526709
-0.00712318
0.0102385
-0.00634402
0.0149991
-0.00628124
0.00721872
0.0102346
0.000601253
0.00864775
0.00207137
-0.0021277
0.00216694
1.04562e-05
0.00603971
-0.00505485
0.00761648
-0.00203885
0.00626091
0.00183079
0.00780745
-0.00202058
0.0098376
-0.00283312
0.00920402
0.000599547
0.0069061
0.00276649
0.00735764
-0.00081579
0.0116067
-0.00553239
0.00980213
0.0030991
0.000182656
0.0131498
-0.00355483
0.00451473
0.00270517
-0.00843431
-0.0059947
0.0434061
0.0325698
-0.0457357
0.0360178
0.0278295
0.0273483
0.0205106
0.0198723
0.0139011
0.0143402
0.00912284
0.0104702
0.0060541
0.00775377
0.00416828
0.00578996
0.00299314
0.00432338
0.00222722
0.0031991
0.00170234
0.00232004
0.00132662
0.0016229
0.00104772
0.00106436
0.000835184
0.000613395
0.00066467
0.000251858
0.00054438
-4.05621e-05
0.000434906
-0.000281045
0.000351239
-0.000473466
0.000278704
-0.000626801
0.000218939
-0.000747587
0.000169333
-0.000841245
0.000128118
-0.000912043
9.32637e-05
-0.000963449
6.438e-05
-0.000998403
3.95309e-05
-0.00101926
1.77734e-05
-0.00102915
1.13592e-06
-0.00102964
-1.22034e-05
-0.00102284
-2.29287e-05
-0.00100928
-3.26783e-05
-0.000990654
-4.01001e-05
-0.000968064
-4.56252e-05
-0.000942501
-4.96045e-05
-0.000914711
-5.24792e-05
-0.000885249
-5.45524e-05
-0.000854784
-5.55718e-05
-0.000823846
-5.57714e-05
-0.000792708
-5.56115e-05
-0.000761733
-5.48978e-05
-0.000731114
-5.39022e-05
-0.000701084
-5.25853e-05
-0.000671783
-5.10608e-05
-0.000643197
-4.96171e-05
-0.000615319
-4.82252e-05
-0.000588135
-4.6874e-05
-0.000561599
-4.56422e-05
-0.000535735
-4.43933e-05
-0.000510635
-4.29889e-05
-0.000486544
-4.11959e-05
-0.000463856
-3.87299e-05
-0.000442983
-3.55665e-05
-0.000424427
-3.15706e-05
-0.00040863
-2.68142e-05
-0.000395838
-2.16627e-05
-0.000386095
-1.64488e-05
-0.000378986
-1.1946e-05
-0.000373524
-9.13415e-06
-0.000367903
-9.40918e-06
-0.000359132
-1.4776e-05
-0.00034283
-2.76433e-05
-0.000313088
-5.06298e-05
-0.000262957
-8.55461e-05
-0.000185783
-0.000131875
-7.73524e-05
-0.000185429
6.03954e-05
-0.000235284
0.000216285
-0.000265595
0.000366481
-0.000254312
0.000478504
-0.000186881
0.000518874
-6.24427e-05
0.000470214
8.99445e-05
0.000342431
0.000222313
0.000175827
0.000283122
1.44846e-05
0.000267854
-0.000118415
0.000216641
-0.000219853
0.000162636
-0.000315429
0.000157367
-0.00041392
0.000167049
-0.000508079
0.000165718
-0.000560071
9.63994e-05
-0.000526559
-4.83398e-05
-0.000350522
-0.000297265
-1.29703e-05
-0.000580647
0.000460521
-0.00081912
0.00100743
-0.000948585
0.00147527
-0.000811807
0.00169388
-0.000378042
0.00167369
1.30487e-05
0.00140968
0.000400167
0.00070155
0.00113337
-0.000603322
0.00217177
-0.002393
0.00302344
-0.00458528
0.00378175
-0.00692528
0.00408438
-0.00891443
0.00353286
-0.0109039
0.00359986
-0.0134574
0.00457586
-0.0153584
0.00344526
-0.0135576
-0.00295793
-0.00934567
-0.00734044
-0.000224701
-0.0160863
0.00883449
-0.0161825
0.0177466
-0.0152561
0.0263657
-0.0149003
0.0133503
0.0232499
0.00170788
0.0202903
0.00341132
-0.00383118
0.00390079
-0.000479368
0.0107482
-0.0119022
0.0135202
-0.00481096
0.0114601
0.00389096
0.0140317
-0.00459215
0.0167977
-0.00559917
0.014731
0.00266616
0.00981121
0.00768635
0.00969384
-0.000698527
0.017135
-0.0129736
0.0165014
0.00373265
0.00203361
0.0276176
-0.00507386
0.0116222
0.00477261
-0.0182808
-0.0143076
0.0492514
0.032086
-0.0487676
0.0459404
0.0311405
0.0395605
0.0268905
0.0321073
0.0213543
0.025165
0.0160651
0.019438
0.0117812
0.014976
0.00863029
0.0115533
0.00641589
0.00891257
0.00486793
0.00684864
0.00376627
0.00521358
0.00296171
0.00390311
0.0023582
0.00284315
0.00189517
0.0019795
0.00152832
0.00127689
0.00124701
0.000700085
0.0010117
0.000228814
0.000822518
-0.00015657
0.000664109
-0.000471307
0.000533696
-0.000724908
0.000422922
-0.000927515
0.000330684
-0.00108671
0.000252425
-0.00120947
0.000187149
-0.00130118
0.000131395
-0.00136745
8.43725e-05
-0.00141138
4.56258e-05
-0.00143645
1.30371e-05
-0.00144634
-1.31215e-05
-0.00144479
-3.43584e-05
-0.00143224
-5.2677e-05
-0.00141135
-6.65335e-05
-0.00138391
-7.70682e-05
-0.00135134
-8.50699e-05
-0.00131473
-9.11714e-05
-0.00127529
-9.50273e-05
-0.001234
-9.70674e-05
-0.00119147
-9.81569e-05
-0.00114835
-9.80391e-05
-0.00110507
-9.71825e-05
-0.00106209
-9.55826e-05
-0.0010197
-9.34549e-05
-0.000977989
-9.134e-05
-0.000936993
-8.92327e-05
-0.000896759
-8.71172e-05
-0.000857269
-8.51384e-05
-0.000818596
-8.30778e-05
-0.000780914
-8.06755e-05
-0.000744611
-7.75063e-05
-0.000710299
-7.3053e-05
-0.000678625
-6.72454e-05
-0.00065036
-5.98466e-05
-0.000626199
-5.09844e-05
-0.000606541
-4.13274e-05
-0.000591466
-3.15353e-05
-0.000580367
-2.30533e-05
-0.000571759
-1.77483e-05
-0.000562911
-1.82682e-05
-0.000549307
-2.83846e-05
-0.000524339
-5.26155e-05
-0.000479122
-9.5853e-05
-0.000403271
-0.000161396
-0.000286818
-0.000248328
-0.00012339
-0.000348857
8.4581e-05
-0.000443247
0.000321193
-0.000502203
0.000551952
-0.000485064
0.000728922
-0.000363834
0.000801144
-0.000134653
0.000739334
0.000151775
0.000553425
0.000408249
0.000299758
0.00053681
4.43451e-05
0.000523302
-0.000173223
0.000434245
-0.000342462
0.000331907
-0.00049574
0.00031068
-0.000645292
0.000316628
-0.000780167
0.000300615
-0.00084727
0.000163517
-0.000785596
-0.00011
-0.00051692
-0.000565938
-1.6245e-05
-0.00108131
0.00067868
-0.00151404
0.00147874
-0.00174864
0.00216467
-0.00149773
0.00248297
-0.000696353
0.002417
7.90013e-05
0.00193579
0.000881362
0.000743685
0.00232549
-0.00132416
0.0042396
-0.00405221
0.00575148
-0.00728923
0.00701875
-0.010673
0.00746806
-0.0134514
0.00631133
-0.0161581
0.00630652
-0.0196812
0.00809894
-0.0221827
0.00594676
-0.0192138
-0.00592691
-0.0130876
-0.0134666
-0.000200096
-0.0289738
0.0119972
-0.02838
0.0248845
-0.0281432
0.0384252
-0.0284411
0.0206718
0.0410033
0.0034708
0.0374914
0.00468797
-0.0050484
0.00571216
-0.00150375
0.0157854
-0.0219753
0.0199413
-0.00896704
0.0173487
0.0064836
0.020781
-0.00802446
0.0236903
-0.00850852
0.0193386
0.00701785
0.0110275
0.0159975
0.00981702
0.000511936
0.0204917
-0.0236482
0.0225298
0.00169452
0.00486371
0.0452835
-0.00595952
0.0224454
0.00693306
-0.0311734
-0.0265331
0.0530909
0.0309426
-0.0519475
0.052474
0.0317575
0.0490774
0.030287
0.0435046
0.0269272
0.036946
0.0226237
0.0304609
0.0182663
0.0246669
0.0144243
0.0197766
0.0113061
0.0157608
0.00888375
0.0124937
0.00703343
0.00983554
0.00561985
0.00766469
0.00452905
0.00588352
0.00367638
0.00441512
0.00299671
0.00320439
0.00245774
0.00220142
0.00201467
0.00137161
0.00165233
0.000685445
0.0013503
0.000120741
0.00109842
-0.000343883
0.000887541
-0.00072245
0.000709224
-0.00102748
0.000557437
-0.00127029
0.000429963
-0.00146007
0.000321349
-0.00160498
0.000229377
-0.00171204
0.000152773
-0.00178806
8.88593e-05
-0.00183692
3.54244e-05
-0.00186144
-9.88995e-06
-0.00187002
-4.4111e-05
-0.00186268
-7.38764e-05
-0.0018429
-9.68691e-05
-0.00181319
-0.000114803
-0.00177548
-0.000128897
-0.00173172
-0.000138794
-0.00168362
-0.000145182
-0.00163226
-0.000149527
-0.00157877
-0.000151551
-0.00152396
-0.000152005
-0.00146858
-0.000150971
-0.00141323
-0.000148817
-0.00135814
-0.000146441
-0.00130348
-0.000143905
-0.00124941
-0.000141197
-0.00119599
-0.000138565
-0.00114338
-0.000135699
-0.00109187
-0.000132186
-0.00104204
-0.000127347
-0.000994751
-0.000120352
-0.000950939
-0.000111062
-0.000911691
-9.91067e-05
-0.000878001
-8.46845e-05
-0.000850457
-6.88785e-05
-0.000829191
-5.28136e-05
-0.000813388
-3.88656e-05
-0.000800997
-3.01461e-05
-0.00078824
-3.10366e-05
-0.000768895
-4.77347e-05
-0.000733884
-8.76308e-05
-0.000671057
-0.000158686
-0.000566247
-0.000266204
-0.000405839
-0.000408736
-0.000181009
-0.000573686
0.00010558
-0.000729827
0.000433401
-0.000830018
0.000757059
-0.000808714
0.00101222
-0.000618976
0.00112821
-0.000250631
0.00106037
0.000219633
0.000815036
0.000653615
0.000463269
0.000888602
9.53407e-05
0.000891266
-0.00022788
0.000757503
-0.000482919
0.000586981
-0.000706214
0.000534015
-0.000912821
0.000523265
-0.00108877
0.000476594
-0.00116634
0.000241103
-0.00106856
-0.00020777
-0.000697243
-0.000937251
-2.28522e-05
-0.0017557
0.000904136
-0.00244103
0.00196794
-0.00281245
0.00288282
-0.00241259
0.00330123
-0.00111477
0.00315859
0.000221648
0.00237945
0.00166049
0.000569312
0.00413563
-0.00240897
0.00721787
-0.00619081
0.0095333
-0.0105387
0.0113666
-0.0149785
0.0119078
-0.0184815
0.00981433
-0.0218177
0.00964258
-0.0262178
0.0124991
-0.0291012
0.00883019
-0.0246282
-0.0104
-0.0165154
-0.0215793
-6.05923e-05
-0.0454286
0.014428
-0.0428687
0.030963
-0.044678
0.0507944
-0.0482727
0.0293139
0.0624837
0.00596816
0.0608372
0.00591216
-0.00499244
0.00751212
-0.00310383
0.0210009
-0.0354641
0.0267886
-0.0147549
0.0239002
0.0093721
0.0279447
-0.012069
0.0303252
-0.0108891
0.0228362
0.0145069
0.0105281
0.0283057
0.0080121
0.0030278
0.0219964
-0.0376326
0.0275444
-0.00385347
0.00805324
0.0647746
-0.0065108
0.0370094
0.00898893
-0.0466732
-0.0428982
0.0562559
0.0299753
-0.0552886
0.0568198
0.0311936
0.0557479
0.031359
0.0526184
0.0300567
0.0477814
0.0274607
0.041967
0.0240807
0.0359065
0.0204849
0.0301328
0.0170799
0.0249381
0.0140784
0.0204238
0.0115478
0.0165759
0.00946777
0.0133278
0.00777718
0.0105975
0.00640664
0.00830532
0.00528891
0.00638455
0.00437852
0.0047737
0.00362551
0.00342471
0.00300133
0.0022963
0.00247873
0.0013551
0.00203963
0.000573297
0.00166935
-7.21349e-05
0.00135464
-0.000603544
0.00108883
-0.00103524
0.00086163
-0.00138205
0.000668234
-0.00165655
0.000503873
-0.0018693
0.000365392
-0.00202948
0.000248944
-0.00214632
0.000152125
-0.00222799
7.17017e-05
-0.00227429
2.17522e-06
-0.00229831
-4.98519e-05
-0.00230087
-9.43367e-05
-0.00228579
-0.000129901
-0.00225644
-0.000158264
-0.00221592
-0.00017933
-0.00216691
-0.000194206
-0.00211127
-0.000205182
-0.0020508
-0.000212042
-0.00198688
-0.000215936
-0.00192075
-0.000217116
-0.00185341
-0.000216167
-0.00178538
-0.000214474
-0.00171707
-0.000212236
-0.00164881
-0.000209467
-0.00158081
-0.000206562
-0.0015134
-0.00020313
-0.00144701
-0.000198573
-0.00138247
-0.000191904
-0.00132094
-0.000181892
-0.0012637
-0.000168307
-0.0012122
-0.000150614
-0.0011678
-0.000129096
-0.00113132
-0.000105374
-0.00110294
-8.12005e-05
-0.00108164
-6.01733e-05
-0.00106474
-4.70527e-05
-0.0010473
-4.8495e-05
-0.00102119
-7.3849e-05
-0.000974622
-0.000134202
-0.000891895
-0.00024142
-0.000754765
-0.000403331
-0.000545685
-0.000617815
-0.000253108
-0.000866263
0.000120374
-0.0011033
0.000549915
-0.00125955
0.000979355
-0.00123815
0.00132738
-0.000966977
0.00150143
-0.000424673
0.00143763
0.000283462
0.00113407
0.0009572
0.000674044
0.00134865
0.000174155
0.00139119
-0.000277822
0.00120952
-0.00063861
0.000947807
-0.000945212
0.000840657
-0.0012149
0.000792985
-0.00143199
0.000693707
-0.00151553
0.000324666
-0.00137497
-0.000348314
-0.000893538
-0.00141868
-3.86759e-05
-0.00261055
0.00112597
-0.00360568
0.00245848
-0.00414495
0.00360857
-0.00356267
0.0041242
-0.00163041
0.00386781
0.000478055
0.00269587
0.00283241
0.000109195
0.00672231
-0.00392384
0.0112509
-0.00885898
0.0144684
-0.0143594
0.016867
-0.019834
0.0173824
-0.0239598
0.0139402
-0.0278139
0.0134966
-0.0329556
0.0176407
-0.0359169
0.0117915
-0.0295891
-0.0167279
-0.0194791
-0.0316892
0.000135661
-0.0650434
0.0159735
-0.0587067
0.0353195
-0.0640239
0.0627655
-0.0757188
0.0393192
0.0859299
0.00930615
0.0908504
0.00710954
-0.00279589
0.00919251
-0.00518692
0.0261935
-0.052465
0.034015
-0.0225766
0.0310826
0.0123045
0.0353994
-0.0163857
0.0364634
-0.0119532
0.0249578
0.0260125
0.00818535
0.0450781
0.00456015
0.00665294
0.0219868
-0.0550592
0.0314543
-0.013321
0.0112832
0.0849457
-0.00699562
0.0552881
0.0106299
-0.0642988
-0.0635598
0.059531
0.0293003
-0.0588561
0.0603186
0.030406
0.0604681
0.0312095
0.0592887
0.0312362
0.0565198
0.0302297
0.0523381
0.0282624
0.047181
0.0256421
0.0415516
0.0227092
0.0358881
0.0197419
0.0305046
0.0169314
0.0255851
0.0143873
0.0212079
0.0121544
0.0173806
0.0102339
0.0140706
0.0085989
0.0112307
0.00721846
0.00880509
0.0060511
0.00674189
0.00506454
0.00499272
0.00422793
0.00351527
0.0035171
0.0022725
0.00291212
0.00123197
0.00239516
0.00036641
0.00195438
-0.00034874
0.00157672
-0.000934585
0.00125408
-0.00140908
0.000978329
-0.00178816
0.000744329
-0.00208558
0.000546324
-0.00231341
0.000379944
-0.00248233
0.000240637
-0.00260594
0.000125858
-0.0026831
2.73067e-05
-0.00272817
-4.92913e-05
-0.00274586
-0.000112238
-0.00273928
-0.000164859
-0.00271359
-0.000205032
-0.00267301
-0.000234811
-0.00262047
-0.000257735
-0.00255876
-0.00027377
-0.0024901
-0.000284611
-0.00241643
-0.000290797
-0.00233938
-0.000293227
-0.00225992
-0.000293939
-0.0021788
-0.000293372
-0.00209668
-0.000291594
-0.00201403
-0.000289222
-0.00193137
-0.000285805
-0.0018494
-0.000280546
-0.00176922
-0.000272099
-0.00169238
-0.000258745
-0.00162055
-0.000240139
-0.00155562
-0.000215553
-0.00149937
-0.000185365
-0.00145287
-0.000151878
-0.00141643
-0.000117651
-0.00138878
-8.78366e-05
-0.00136655
-6.92941e-05
-0.0013435
-7.15519e-05
-0.00130947
-0.00010789
-0.00124971
-0.000193964
-0.00114473
-0.000346406
-0.000971964
-0.000576096
-0.000709696
-0.000880082
-0.000343388
-0.00123257
0.000124814
-0.00157149
0.000666227
-0.00180096
0.00121451
-0.00178642
0.00167126
-0.00142371
0.00192025
-0.000673643
0.00187416
0.000329575
0.00151711
0.00131428
0.000940606
0.00192519
0.000289065
0.00204278
-0.000316552
0.00181518
-0.000804975
0.00143627
-0.00120936
0.00124509
-0.0015485
0.00113216
-0.00180694
0.000952173
-0.00189279
0.000410534
-0.00170489
-0.000536197
-0.00110947
-0.00201409
-7.23092e-05
-0.0036477
0.00132961
-0.00500759
0.00292895
-0.00574429
0.00431448
-0.00494819
0.00491896
-0.00223491
0.00450312
0.00089392
0.00282999
0.00450552
-0.000671592
0.0102239
-0.00593156
0.0165108
-0.0120975
0.0206343
-0.0187604
0.0235299
-0.0252061
0.0238281
-0.0298091
0.0185432
-0.0340409
0.0177283
-0.0397389
0.0233387
-0.0424024
0.0144551
-0.0339313
-0.0251992
-0.0219263
-0.0436941
0.000258522
-0.0872282
0.0168702
-0.0753186
0.0375398
-0.0846932
0.0732802
-0.111459
0.0506097
0.1086
0.0135928
0.127867
0.00838507
0.00241183
0.010661
-0.00746295
0.0311586
-0.0729624
0.0415288
-0.032947
0.0388518
0.0149816
0.0430295
-0.0205634
0.0419176
-0.0108414
0.0255793
0.0423508
0.00418642
0.066471
9.00744e-05
0.0107493
0.0212606
-0.0762299
0.034401
-0.0264614
0.0141686
0.105178
-0.00773385
0.0771905
0.0115115
-0.0835442
-0.0885469
0.0631753
0.0288078
-0.0626827
0.0638231
0.0297583
0.0643456
0.0306869
0.0642513
0.0313305
0.0631087
0.0313723
0.0607159
0.0306552
0.0571286
0.0292295
0.0525848
0.027253
0.0474119
0.0249148
0.0419493
0.022394
0.0364942
0.0198424
0.0312726
0.017376
0.0264319
0.0150747
0.0220489
0.0129819
0.0181501
0.0111173
0.0147251
0.00947608
0.0117452
0.00804445
0.00917165
0.00680148
0.00696317
0.00572559
0.00507907
0.00479622
0.00348078
0.00399344
0.00213346
0.00330169
0.001005
0.0027051
6.73275e-05
0.00219172
-0.000705417
0.00175104
-0.00133531
0.00137415
-0.0018423
0.00105332
-0.00224406
0.000781757
-0.00255608
0.000552711
-0.00279124
0.000361051
-0.00296639
0.000202477
-0.00308485
6.91449e-05
-0.00315751
-3.96065e-05
-0.00319595
-0.000126432
-0.00320265
-0.000198355
-0.00318464
-0.000252835
-0.00314658
-0.000295815
-0.0030927
-0.000327674
-0.0030264
-0.000350923
-0.00295067
-0.000366542
-0.00286803
-0.000375872
-0.00278016
-0.000381824
-0.00268832
-0.000385219
-0.00259369
-0.000386238
-0.0024971
-0.000385816
-0.00239942
-0.000383497
-0.00230169
-0.000378284
-0.00220536
-0.000368437
-0.00211246
-0.000351662
-0.00202513
-0.00032748
-0.00194575
-0.000294945
-0.00187658
-0.000254544
-0.00181905
-0.000209417
-0.00177358
-0.000163138
-0.00173864
-0.00012278
-0.00171014
-9.78011e-05
-0.00168046
-0.00010125
-0.00163719
-0.000151162
-0.0015625
-0.00026866
-0.00143291
-0.000476002
-0.00122137
-0.000787638
-0.000901833
-0.00119962
-0.00045652
-0.00167788
0.000113376
-0.00214138
0.000775965
-0.00246354
0.00145586
-0.00246631
0.00203814
-0.00200597
0.00238154
-0.00101702
0.00237109
0.000340047
0.00196996
0.00171544
0.00127203
0.00262315
0.000449988
0.00286486
-0.000335344
0.00260056
-0.000975093
0.00207606
-0.00149318
0.00176322
-0.0019091
0.00154812
-0.00221022
0.00125332
-0.00229675
0.000497082
-0.00206019
-0.000772733
-0.00135125
-0.00272303
-0.000135326
-0.00486361
0.00149704
-0.00663996
0.00335427
-0.00760152
0.00496901
-0.00656291
0.00564859
-0.00291451
0.00501915
0.00152339
0.00272127
0.00680338
-0.00186531
0.0148105
-0.00848681
0.0231323
-0.0159273
0.0280748
-0.0237265
0.031329
-0.0310356
0.0311372
-0.0359304
0.0234379
-0.040376
0.0221738
-0.0464003
0.029363
-0.0483601
0.0164149
-0.0376197
-0.0359397
-0.0239592
-0.0573545
5.2457e-05
-0.11124
0.0178253
-0.0930916
0.0375677
-0.104435
0.0809213
-0.154813
0.0629897
0.126532
0.0189405
0.171917
0.00988492
0.0114673
0.0118463
-0.00942448
0.0356921
-0.0968081
0.0492684
-0.0465235
0.0471617
0.0170884
0.050714
-0.0241157
0.0464797
-0.00660713
0.0245606
0.0642699
-0.00130213
0.0923338
-0.00464827
0.0140953
0.0204184
-0.101297
0.0366557
-0.0426987
0.016576
0.125258
-0.00890062
0.102667
0.0113039
-0.103749
-0.117651
0.0671746
0.0284045
-0.0667714
0.0676555
0.0292774
0.0681624
0.0301801
0.0684678
0.0310251
0.0682481
0.031592
0.0672086
0.0316946
0.0651778
0.0312603
0.0621301
0.0303008
0.058167
0.0288778
0.0534798
0.0270813
0.0483081
0.0250141
0.0429032
0.0227809
0.0374969
0.020481
0.0322785
0.0182003
0.0273855
0.0160104
0.0229011
0.0139605
0.0188646
0.012081
0.015282
0.010384
0.0121383
0.00886937
0.0094056
0.0075289
0.00704968
0.00634935
0.00503436
0.005317
0.00332304
0.00441635
0.00188108
0.00363364
0.00067602
0.0029561
-0.000322031
0.00237218
-0.00114017
0.00187151
-0.00180297
0.00144464
-0.00233239
0.00108219
-0.00274786
0.000776532
-0.00306574
0.000520349
-0.00330416
0.000307529
-0.0034754
0.000131601
-0.00358328
-1.85585e-05
-0.00364924
-0.000132412
-0.00367505
-0.000227055
-0.00366864
-0.000302236
-0.00363638
-0.000359958
-0.00358347
-0.000403848
-0.00351436
-0.000435658
-0.00343292
-0.000457327
-0.00334182
-0.000472939
-0.00324314
-0.000483907
-0.00313879
-0.000490601
-0.00303019
-0.000494424
-0.0029187
-0.000495005
-0.00280581
-0.000491175
-0.00269347
-0.000480792
-0.00258424
-0.0004609
-0.00248085
-0.00043088
-0.00238626
-0.000389551
-0.0023033
-0.00033752
-0.00223378
-0.000278942
-0.0021783
-0.000218635
-0.0021351
-0.000165993
-0.00209929
-0.000133618
-0.00206179
-0.000138765
-0.00200787
-0.000205086
-0.00191646
-0.000360069
-0.00176004
-0.000632434
-0.00150698
-0.0010407
-0.00112683
-0.00157976
-0.000598355
-0.00220636
7.8929e-05
-0.00281865
0.000870535
-0.00325514
0.00169399
-0.00328975
0.00241904
-0.00273099
0.00287883
-0.0014768
0.00292674
0.000292164
0.00249692
0.0021453
0.00167757
0.00344253
0.000668496
0.00387397
-0.000322986
0.00359209
-0.00113942
0.00289254
-0.00178904
0.00241289
-0.00229093
0.00205004
-0.00263836
0.00160079
-0.00272722
0.000585955
-0.00244492
-0.00105501
-0.00162785
-0.00354009
-0.000242229
-0.00624922
0.00160739
-0.00848958
0.0037064
-0.00970053
0.00553683
-0.00839332
0.00627054
-0.00364824
0.00536281
0.00243114
0.00230301
0.00986316
-0.00353975
0.0206533
-0.0116315
0.0312241
-0.0203468
0.0367901
-0.0292179
0.0402001
-0.0372403
0.0391595
-0.0422074
0.028405
-0.0466835
0.0266499
-0.0527689
0.0354485
-0.0536512
0.0172972
-0.0407789
-0.0488121
-0.0258155
-0.0723178
-0.000989221
-0.136066
0.0197301
-0.113811
0.0356378
-0.120343
0.0842234
-0.203399
0.0761929
0.134562
0.0254592
0.222651
0.0118311
0.0250954
0.012759
-0.0103525
0.039653
-0.123702
0.0571721
-0.0640428
0.0559633
0.0182973
0.0583378
-0.0264902
0.0499919
0.00173871
0.021907
0.0923548
-0.00773208
0.121973
-0.00932449
0.0156876
0.0200155
-0.130637
0.0385466
-0.0612298
0.0183997
0.145404
-0.0105765
0.131643
0.00976022
-0.124086
-0.150306
0.0714868
0.0280497
-0.0711319
0.0718657
0.0288986
0.0722757
0.0297701
0.0726391
0.0306618
0.0727893
0.0314418
0.07251
0.031974
0.0715945
0.0321758
0.0698918
0.0320035
0.0673293
0.0314403
0.0639172
0.0304934
0.0597398
0.0291915
0.0549416
0.0275791
0.0497092
0.0257134
0.0442489
0.0236606
0.0387639
0.0214954
0.0334313
0.019293
0.0283888
0.0171235
0.0237289
0.015044
0.0195029
0.0130954
0.0157293
0.0113025
0.0124028
0.00967586
0.00950281
0.00821696
0.00699934
0.00691977
0.00485794
0.00577501
0.00304253
0.00477154
0.00151723
0.0038975
0.000247693
0.00314111
-0.0007979
0.00249029
-0.00164974
0.00193406
-0.00233461
0.00146139
-0.00287633
0.00106204
-0.0032957
0.000726869
-0.00361249
0.000448353
-0.00384869
0.000217616
-0.00400297
2.18515e-05
-0.00410367
-0.000126381
-0.00415453
-0.00025139
-0.00416452
-0.000349994
-0.0041416
-0.000426779
-0.00409246
-0.000484815
-0.00402278
-0.000527014
-0.00393675
-0.000558976
-0.00383767
-0.000583003
-0.0037285
-0.000599788
-0.00361152
-0.000611405
-0.00348882
-0.000617718
-0.00336255
-0.000617461
-0.00323523
-0.000608114
-0.00311016
-0.000585989
-0.00299071
-0.000550333
-0.00288055
-0.000499734
-0.00278316
-0.00043492
-0.00270085
-0.000361266
-0.00263441
-0.00028508
-0.00258191
-0.000218516
-0.00253764
-0.000177894
-0.00249102
-0.000185398
-0.00242495
-0.000271156
-0.00231512
-0.000469909
-0.00212995
-0.000817616
-0.0018333
-0.00133735
-0.00139035
-0.00202271
-0.000776147
-0.00282056
1.28654e-05
-0.00360765
0.000938765
-0.00418103
0.00191622
-0.00426719
0.00280116
-0.00361591
0.00340157
-0.0020772
0.00353571
0.000158055
0.00309993
0.00258111
0.0021661
0.0043764
0.00095764
0.00508248
-0.000265698
0.00481547
-0.00128566
0.00391254
-0.0020872
0.00321448
-0.00268732
0.0026502
-0.00308846
0.00200197
-0.00318584
0.000683353
-0.00286568
-0.00137514
-0.00195092
-0.00445485
-0.000409856
-0.00779027
0.00163798
-0.0105374
0.00395574
-0.0120183
0.00598043
-0.010418
0.00673887
-0.00440669
0.00547657
0.00369346
0.00150425
0.0138355
-0.00575671
0.0279142
-0.0153885
0.0408558
-0.0253273
0.0467289
-0.0351721
0.0500449
-0.0437219
0.0477092
-0.0485214
0.0332045
-0.052835
0.0309634
-0.058701
0.0413145
-0.058244
0.0168402
-0.0436914
-0.0633648
-0.0278
-0.0882092
-0.0032031
-0.160663
0.0229696
-0.139984
0.0320696
-0.129443
0.0824347
-0.253764
0.0900142
0.126983
0.0332557
0.279409
0.0144832
0.0438679
0.0135151
-0.00938458
0.0430039
-0.153191
0.0652154
-0.0862546
0.0652097
0.0183031
0.0657776
-0.0270581
0.0523092
0.0152071
0.017657
0.127007
-0.014909
0.154539
-0.0137088
0.0144873
0.0200895
-0.164435
0.0403158
-0.0814562
0.0196894
0.166031
-0.0127047
0.164037
0.00670606
-0.143496
-0.185501
0.0761123
0.0277279
-0.0757906
0.0764377
0.0285732
0.0767736
0.0294343
0.0770953
0.0303401
0.0773333
0.0312038
0.0773727
0.0319346
0.0770697
0.0324788
0.0762756
0.0327976
0.07486
0.032856
0.072728
0.0326254
0.0698317
0.0320878
0.0661755
0.0312353
0.0618191
0.0300699
0.0568748
0.0286049
0.0515004
0.0268699
0.0458819
0.0249115
0.0402124
0.0227929
0.0346696
0.0205869
0.0293982
0.0183668
0.0245021
0.0161986
0.0200441
0.0141339
0.0160525
0.0122086
0.012529
0.0104433
0.00945711
0.0088469
0.00680875
0.00741993
0.00454915
0.00615713
0.00264057
0.00504973
0.00104448
0.00408642
-0.0002764
0.00325494
-0.00135683
0.00254179
-0.00223036
0.00193553
-0.00292562
0.0014221
-0.00346926
0.000991955
-0.0038831
0.000631437
-0.00419656
0.0003353
-0.0044123
8.93323e-05
-0.00455515
-0.000108556
-0.00463863
-0.000266537
-0.00467051
-0.00039491
-0.00466124
-0.000494107
-0.00461935
-0.000568916
-0.0045512
-0.000627133
-0.00446182
-0.000672403
-0.00435573
-0.000705892
-0.00423649
-0.000730648
-0.00410722
-0.000747006
-0.00397095
-0.00075374
-0.00383104
-0.000748033
-0.00369163
-0.000725413
-0.00355694
-0.000685036
-0.00343141
-0.000625275
-0.00331936
-0.000546981
-0.00322366
-0.00045698
-0.00314542
-0.000363333
-0.00308254
-0.00028141
-0.00302858
-0.000231865
-0.00297146
-0.00024253
-0.00289177
-0.000350861
-0.002762
-0.00059968
-0.00254673