/*--------------------------------*- C++ -*----------------------------------*\
| =========                 |                                                 |
| \\      /  F ield         | OpenFOAM: The Open Source CFD Toolbox           |
|  \\    /   O peration     | Version:  2412                                  |
|   \\  /    A nd           | Website:  www.openfoam.com                      |
|    \\/     M anipulation  |                                                 |
\*---------------------------------------------------------------------------*/
FoamFile
{
    version     2.0;
    format      ascii;
    arch        "LSB;label=32;scalar=64";
    class       volScalarField;
    location    "0.8";
    object      Co;
}
// * * * * * * * * * * * * * * * * * * * * * * * * * * * * * * * * * * * * * //

dimensions      [0 0 0 0 0 0 0];

internalField   nonuniform List<scalar> 
12600
(
0.376133
0.154863
0.0612186
0.0271024
0.0146105
0.0090494
0.0058924
0.00385012
0.00245134
0.00146605
0.000763096
0.000372999
0.000396276
0.000592034
0.000722709
0.000810933
0.000861041
0.00088638
0.000890428
0.000879848
0.000857575
0.000826638
0.000791412
0.000757211
0.000718876
0.000675465
0.000634877
0.00059404
0.000552526
0.00051226
0.000473624
0.000436618
0.000401586
0.000368674
0.000337809
0.000309045
0.00028231
0.000257561
0.000234742
0.000213715
0.000194396
0.000176664
0.000160391
0.000145448
0.000131701
0.000119035
0.000107358
9.66222e-05
8.68144e-05
7.7973e-05
7.01187e-05
6.32816e-05
5.74381e-05
5.249e-05
4.82475e-05
4.44018e-05
4.05267e-05
3.60759e-05
3.04196e-05
2.29585e-05
1.33231e-05
1.34148e-05
2.46955e-05
3.43072e-05
3.86132e-05
3.67052e-05
3.48013e-05
2.80604e-05
1.83619e-05
9.04031e-06
7.03185e-06
7.75278e-06
7.33763e-06
9.52522e-06
1.94414e-05
3.2228e-05
4.34098e-05
5.1578e-05
5.86611e-05
6.71198e-05
7.23467e-05
6.82059e-05
6.27522e-05
4.57913e-05
6.9311e-05
0.000133845
0.000181357
0.000195017
0.000183497
0.000172406
0.000252187
0.000505242
0.000587151
0.000550886
0.00012496
2.40507e-05
2.07787e-05
2.96687e-05
4.49632e-05
6.70792e-05
7.68612e-05
7.19016e-05
8.20788e-05
0.000140198
0.000221145
0.000259977
0.000255368
0.000238375
0.000190198
0.000134395
0.000100203
6.66362e-05
3.06513e-05
1.77921e-05
2.22423e-05
2.07108e-05
1.54133e-05
1.12005e-05
3.81089e-06
7.51024e-06
0.604181
0.390489
0.227509
0.130464
0.0784631
0.050314
0.0338457
0.0233442
0.0162163
0.0111838
0.00754489
0.00487041
0.00288901
0.0014173
0.000966392
0.00134554
0.00173679
0.002006
0.00217196
0.00226356
0.00229567
0.00228252
0.0022364
0.00216951
0.00208909
0.00200462
0.00191617
0.00181644
0.00171048
0.00160283
0.00149527
0.00138929
0.00128672
0.00118844
0.00109461
0.00100598
0.000922747
0.000844917
0.000772503
0.000705233
0.000643033
0.000585671
0.000532791
0.000484044
0.000439052
0.000397485
0.000359057
0.000323589
0.000291009
0.00026146
0.000235027
0.000211854
0.000191954
0.000175107
0.00016084
0.000148299
0.000136259
0.000123086
0.000106762
8.52027e-05
5.68107e-05
5.53838e-05
8.83481e-05
0.000117254
0.000127378
0.000116683
0.000115404
9.78889e-05
6.85945e-05
3.59582e-05
2.33942e-05
1.88586e-05
2.21827e-05
4.10002e-05
8.33591e-05
0.000125054
0.000159408
0.000182368
0.000202394
0.000226972
0.000234742
0.000214861
0.000207156
0.000197444
0.000314771
0.000515126
0.000639413
0.000637941
0.00057828
0.000519404
0.000884167
0.00198548
0.00212392
0.002089
0.000547449
9.95049e-05
8.27072e-05
0.000124739
0.000164686
0.000236383
0.000235825
0.000236029
0.000347271
0.000579467
0.000795231
0.000854765
0.000778508
0.00074795
0.000606382
0.000416623
0.000315951
0.000228806
0.000120271
7.55391e-05
7.69393e-05
7.05903e-05
5.53435e-05
4.20925e-05
1.23973e-05
3.08969e-05
0.671037
0.541388
0.389661
0.264183
0.176425
0.119487
0.0829269
0.0587836
0.0422012
0.0304141
0.0218166
0.0154305
0.0106293
0.006982
0.00425728
0.00216914
0.00162989
0.00223934
0.00271222
0.0030277
0.00321621
0.00330647
0.00332171
0.00327757
0.00319581
0.00309565
0.00299788
0.00288705
0.00275779
0.00261489
0.0024635
0.00230836
0.00215375
0.002002
0.00185397
0.00171192
0.0015769
0.00144924
0.00132931
0.00121695
0.00111236
0.00101541
0.000925656
0.000842614
0.000765737
0.000694522
0.00062848
0.000567248
0.000510628
0.000458892
0.000412218
0.000370958
0.000335347
0.000305258
0.000280214
0.000259121
0.000240259
0.000221185
0.000198507
0.000168328
0.000126872
0.000123253
0.000173592
0.000217344
0.000224982
0.00019529
0.000203354
0.000183591
0.000138364
8.19245e-05
4.78067e-05
2.21023e-05
5.15727e-05
0.000103375
0.000181277
0.000252892
0.000307082
0.000338072
0.000365815
0.00040308
0.000398944
0.000363382
0.000386862
0.000453262
0.000718045
0.00103907
0.0011914
0.00109166
0.000979573
0.000834844
0.00170628
0.00426134
0.0042747
0.00427813
0.00124926
0.000219201
0.000168193
0.00027156
0.000317438
0.000443002
0.000375328
0.000457592
0.000786606
0.00123152
0.00150659
0.00148253
0.00124082
0.00126939
0.00105571
0.000704995
0.000547547
0.000440385
0.000258592
0.000162791
0.000139131
0.00013043
0.000110962
8.77476e-05
2.47572e-05
6.8799e-05
0.670305
0.6097
0.504513
0.389716
0.28869
0.210048
0.152665
0.111727
0.0823985
0.0610562
0.0452554
0.0333802
0.0243525
0.0174235
0.0121201
0.00800581
0.00485712
0.00274554
0.00243424
0.00311326
0.0035746
0.00386341
0.00402053
0.00407169
0.00404507
0.00396182
0.00385625
0.00374287
0.00363968
0.00350441
0.00334289
0.0031653
0.00297956
0.00279063
0.00260094
0.00241502
0.00223534
0.00206301
0.00189925
0.00174426
0.00159882
0.00146317
0.00133691
0.00121961
0.00111063
0.00100935
0.00091508
0.000827263
0.000745526
0.000670291
0.000601859
0.000540888
0.000488001
0.000443373
0.000406795
0.000377219
0.000352718
0.000330264
0.000305125
0.00027129
0.000221988
0.000214445
0.00027738
0.000332653
0.000331091
0.000273932
0.000296926
0.000283354
0.000225894
0.00014538
7.77154e-05
1.83904e-05
9.32211e-05
0.000194066
0.000310337
0.000411811
0.000482226
0.000514365
0.000543412
0.000587757
0.000555905
0.000519457
0.000604886
0.000810805
0.00126623
0.00167975
0.00180942
0.00153178
0.00139843
0.00112421
0.00265928
0.00710322
0.00694687
0.00689384
0.00222918
0.000407009
0.000270732
0.000465531
0.000496881
0.000672087
0.000471814
0.000745408
0.00138415
0.00205524
0.00229889
0.0020949
0.00163151
0.00178973
0.00151958
0.000986823
0.000784809
0.000690857
0.000435657
0.000274024
0.000205153
0.000201115
0.000180962
0.000143166
4.5854e-05
0.000123177
0.646169
0.621555
0.561997
0.478676
0.388672
0.305316
0.235292
0.179767
0.136985
0.104338
0.079405
0.0602589
0.0454625
0.033954
0.0249944
0.0179731
0.0124943
0.00820074
0.00486875
0.0031514
0.00325098
0.00385607
0.00425254
0.00448055
0.00458053
0.00457986
0.00450807
0.00439746
0.00427577
0.0041988
0.00407397
0.00391134
0.00372391
0.00352119
0.00330822
0.00309272
0.00287947
0.00267093
0.0024697
0.0022768
0.00209387
0.00192189
0.00176076
0.00161023
0.00146977
0.00133869
0.00121617
0.00110145
0.000993963
0.000894299
0.00080293
0.000720906
0.000649403
0.000589094
0.000540288
0.00050226
0.000473155
0.000449596
0.000425553
0.000392662
0.000340451
0.000326261
0.000396431
0.000460737
0.000444757
0.000353277
0.000393093
0.0003943
0.00032876
0.000223981
0.000110171
1.35496e-05
0.000148725
0.000311008
0.000467334
0.000597833
0.000680582
0.000706716
0.000729196
0.000772491
0.00069539
0.000686956
0.000863078
0.0012654
0.0019424
0.00240994
0.00246488
0.00193319
0.00183886
0.00139858
0.00357077
0.0101882
0.00992077
0.00961145
0.00346079
0.000684651
0.000385103
0.000700836
0.00069694
0.000907743
0.000560535
0.00116146
0.0021705
0.00300195
0.00311492
0.00264761
0.00199755
0.00229764
0.00198089
0.00125223
0.00101967
0.000970873
0.000642733
0.000403825
0.000272051
0.000283585
0.000263973
0.000204115
7.83403e-05
0.00019467
0.618713
0.605935
0.575392
0.524008
0.457667
0.385628
0.316122
0.25418
0.201779
0.158865
0.124362
0.0968697
0.075039
0.0577073
0.0439606
0.0330362
0.0243737
0.0174984
0.0120681
0.00779243
0.00445111
0.00331879
0.00392346
0.0044277
0.0047373
0.00489121
0.00492883
0.00487451
0.00475351
0.00465703
0.00459037
0.00449107
0.00434212
0.00415723
0.00394608
0.00372083
0.00348957
0.00325696
0.00302764
0.00280396
0.00258893
0.00238461
0.00219152
0.0020099
0.00183943
0.00167952
0.00152932
0.00138789
0.00125445
0.00112981
0.00101466
0.000910514
0.000819266
0.000742274
0.000680606
0.000634117
0.000601278
0.000578583
0.000558775
0.000530979
0.000480461
0.000455964
0.000527565
0.000599422
0.000565434
0.000434568
0.000488875
0.000513413
0.000444312
0.000315552
0.000155276
3.96924e-05
0.000236789
0.000451317
0.000648012
0.000806018
0.000897196
0.000910218
0.000917159
0.000949225
0.000808156
0.000870576
0.0011631
0.00180959
0.00272549
0.00319972
0.00312962
0.00227687
0.00230374
0.00167606
0.00417512
0.0130979
0.0128352
0.0120095
0.00488278
0.00106783
0.000508641
0.000970855
0.000911601
0.00113367
0.000709529
0.00174049
0.00315058
0.00401762
0.00389913
0.00310565
0.00235711
0.00278295
0.00242605
0.00149385
0.00124684
0.00127235
0.000872105
0.000548055
0.000337482
0.000378129
0.000357936
0.000266733
0.000119606
0.000279268
0.594748
0.582777
0.564975
0.535195
0.492066
0.4387
0.38041
0.322237
0.267845
0.219343
0.177544
0.142369
0.113238
0.0893535
0.0699108
0.0541436
0.0414101
0.0311494
0.0229164
0.0163348
0.0111009
0.00697194
0.0042887
0.00381008
0.0044293
0.00482191
0.00503842
0.00511695
0.0050888
0.00498346
0.00489602
0.00483772
0.00477589
0.00465232
0.00447678
0.00426856
0.00404059
0.0038007
0.00355647
0.00331227
0.003073
0.00284238
0.00262194
0.00241268
0.00221478
0.00202792
0.00185135
0.00168401
0.00152497
0.00137528
0.00123589
0.0011089
0.000997036
0.000902533
0.000827448
0.000772465
0.000736619
0.000716482
0.000703664
0.00068467
0.000640101
0.000600753
0.00066757
0.000746445
0.000692449
0.000518899
0.00058068
0.000637152
0.000569504
0.000417705
0.000216639
8.75671e-05
0.000343383
0.000611197
0.000847433
0.00103091
0.00112676
0.00111982
0.00110133
0.00110982
0.000884998
0.00107416
0.00150582
0.0024321
0.00359077
0.00401828
0.00377789
0.00254874
0.00279379
0.00198316
0.004246
0.0154095
0.0152999
0.0136725
0.00640271
0.00156281
0.000641831
0.00126836
0.0011349
0.00133324
0.000927659
0.00243917
0.00425122
0.00504584
0.00460336
0.00344801
0.00269177
0.00323893
0.00284643
0.00170887
0.00146262
0.0015881
0.00111768
0.000703665
0.000399922
0.000484625
0.00046077
0.000328017
0.000168491
0.00037434
0.574673
0.560896
0.546418
0.527186
0.499888
0.463773
0.420547
0.373079
0.324379
0.27702
0.232886
0.193133
0.158277
0.128338
0.10303
0.0818827
0.0643739
0.0499752
0.0382095
0.0286487
0.0209245
0.014728
0.00978984
0.00589192
0.00409109
0.0042819
0.00476426
0.00504708
0.00517331
0.00518128
0.0050976
0.00501328
0.00495995
0.00494638
0.00485307
0.00469783
0.00450174
0.00427721
0.004036
0.00378536
0.00353285
0.00328448
0.00304331
0.0028115
0.00259006
0.00237922
0.00217846
0.00198679
0.00180312
0.00162885
0.00146525
0.00131506
0.001182
0.00106937
0.000980409
0.000916878
0.000878599
0.000862425
0.000858952
0.000852018
0.000817301
0.000757746
0.000813241
0.000899532
0.000825119
0.000607394
0.00066463
0.000761537
0.000700881
0.000527769
0.000284663
0.000148772
0.000465153
0.000785911
0.00105996
0.0012666
0.00136373
0.00133048
0.00127601
0.001247
0.000917803
0.0013015
0.00199184
0.0032187
0.00451013
0.00483535
0.00438851
0.00274181
0.0033082
0.00234584
0.00375411
0.0168609
0.0171013
0.0143546
0.00792089
0.00216528
0.000788181
0.00158555
0.00136085
0.00149007
0.00120665
0.00324849
0.00542903
0.00603164
0.00519138
0.00366931
0.00300211
0.00366174
0.00323901
0.00189814
0.00166485
0.00191116
0.00137464
0.000869097
0.000458722
0.000602266
0.000570215
0.000386346
0.000223887
0.000477137
0.557216
0.542113
0.527595
0.511993
0.492805
0.468253
0.437962
0.402679
0.363825
0.323113
0.282245
0.242719
0.205705
0.171996
0.142023
0.115895
0.0934888
0.0745232
0.0586446
0.0454718
0.0346324
0.0257852
0.0186186
0.0128633
0.00828339
0.00494519
0.00400909
0.00458655
0.00494112
0.00512329
0.00516964
0.0051148
0.00502795
0.00497569
0.0050136
0.00496039
0.00483427
0.00465535
0.00444114
0.00420302
0.00395216
0.00369774
0.00344499
0.00319776
0.00295832
0.00272776
0.00250609
0.00229255
0.00208599
0.00188824
0.00170099
0.00152769
0.00137321
0.00124206
0.00113889
0.00106675
0.00102647
0.00101538
0.00102321
0.00103114
0.00100982
0.00092385
0.000961385
0.00105632
0.000962571
0.000700893
0.000736505
0.000882156
0.000834566
0.000642772
0.000357433
0.000221049
0.000597859
0.000969959
0.0012795
0.00150691
0.00160252
0.00153741
0.00143609
0.0013539
0.000973805
0.00155601
0.00255447
0.00409593
0.00545327
0.0056234
0.0049472
0.00285554
0.00384418
0.0027758
0.00287991
0.0174467
0.0183232
0.0140786
0.00935722
0.00286236
0.000953589
0.0019142
0.00158338
0.00158853
0.00155468
0.00415296
0.00663619
0.00692556
0.00564331
0.00378043
0.00328885
0.00405114
0.00360639
0.0020667
0.0018522
0.00223397
0.0016391
0.00104427
0.000514243
0.000729632
0.000684165
0.000455883
0.000298142
0.000584745
0.541493
0.525846
0.510825
0.495997
0.480009
0.461493
0.439588
0.413993
0.384905
0.352928
0.318945
0.283985
0.249109
0.21531
0.183438
0.154131
0.127791
0.104585
0.0844878
0.067335
0.0528764
0.0408237
0.0308759
0.0227445
0.0161609
0.0108838
0.00669972
0.00445065
0.00430617
0.00474062
0.0049803
0.00507225
0.00505227
0.00495338
0.00494032
0.0049948
0.00498831
0.00489547
0.00474017
0.00453983
0.00431058
0.00406583
0.00381384
0.00356087
0.00331099
0.00306663
0.00282866
0.00259681
0.00237001
0.00215066
0.00194094
0.00174515
0.00156942
0.00141963
0.00130206
0.00122127
0.00117929
0.00117413
0.0011948
0.00121994
0.00121521
0.00113333
0.00114397
0.00121432
0.00110364
0.000799833
0.000791872
0.000994212
0.000966274
0.000759428
0.000432871
0.000300963
0.000736368
0.0011573
0.00149976
0.00174574
0.00183779
0.00173623
0.00157711
0.0014249
0.00109913
0.00184026
0.00317794
0.00503219
0.00638925
0.00636013
0.00544733
0.00300942
0.00439652
0.00326788
0.00186847
0.0173868
0.0192647
0.0130908
0.0106613
0.00363605
0.0011453
0.00224565
0.00179613
0.0016145
0.0019763
0.00513123
0.00782383
0.00768847
0.00595793
0.00380367
0.00355093
0.00440831
0.00395482
0.00222218
0.00202395
0.00254745
0.0019071
0.00123051
0.000567888
0.000864573
0.000800697
0.000524615
0.000378409
0.000694404
0.527139
0.511357
0.496089
0.481324
0.466373
0.450452
0.432945
0.413389
0.391502
0.367224
0.340724
0.312367
0.282683
0.252323
0.222019
0.192516
0.164503
0.138543
0.115025
0.0941542
0.0759678
0.0603726
0.0471853
0.036174
0.0270854
0.019667
0.0136785
0.00889901
0.00518527
0.00393949
0.00445521
0.00476092
0.004905
0.0049211
0.00484689
0.00484374
0.0049019
0.00494548
0.00489234
0.00476341
0.00458226
0.00436811
0.00413341
0.00388767
0.00363752
0.00338734
0.00313933
0.00289408
0.00265081
0.00241264
0.0021824
0.00196533
0.00176898
0.00160077
0.00146881
0.00137935
0.00133586
0.00133719
0.00137186
0.00141613
0.00143082
0.00136107
0.00133655
0.00137078
0.00124673
0.000904002
0.00082617
0.0010926
0.00109134
0.000874139
0.000508651
0.000384023
0.000874899
0.00134171
0.00171465
0.00197739
0.00206466
0.00192319
0.0016955
0.00145517
0.00126011
0.0021561
0.00385333
0.00600288
0.00728861
0.00703053
0.00589017
0.00329486
0.0049565
0.00380787
0.00123724
0.0169935
0.0202093
0.0117177
0.0118057
0.00446595
0.00137072
0.0025709
0.00199227
0.00155607
0.00247228
0.0061571
0.00894426
0.00829576
0.00615157
0.00376761
0.003787
0.00473515
0.00429227
0.00237432
0.00218037
0.00284069
0.0021738
0.00143013
0.000622115
0.00100424
0.0009182
0.000592062
0.000462046
0.000803639
0.513984
0.498215
0.48291
0.468175
0.453594
0.438724
0.423241
0.406855
0.389283
0.370293
0.349738
0.327573
0.303861
0.278785
0.252662
0.225941
0.199178
0.172987
0.147967
0.124641
0.103394
0.0844574
0.0679056
0.0536879
0.0416625
0.0316329
0.0233757
0.0166611
0.0112691
0.00699053
0.00448372
0.00409849
0.00447847
0.00467504
0.00473734
0.00469749
0.00468826
0.00474212
0.00484228
0.00483106
0.0047336
0.00457806
0.00438265
0.00416144
0.00392459
0.00367925
0.0034296
0.00317758
0.00292298
0.00266989
0.00242201
0.00218561
0.00196982
0.0017838
0.00163766
0.0015396
0.00149468
0.00150283
0.0015523
0.00161717
0.00165379
0.00160006
0.00153215
0.00152265
0.00138966
0.00101244
0.00083496
0.00117207
0.00120482
0.000983012
0.000582165
0.000464951
0.00100738
0.00151716
0.0019186
0.00219686
0.00227897
0.00209525
0.00178852
0.00144088
0.00144453
0.00250418
0.00456899
0.00698172
0.0081257
0.00762818
0.00628177
0.00364362
0.00551253
0.00437632
0.0015591
0.0165215
0.0212484
0.0102127
0.0127758
0.00533052
0.00163617
0.00288056
0.00216428
0.00140426
0.00311756
0.00727515
0.00995254
0.00874043
0.00625309
0.00369941
0.00399433
0.00503212
0.00462535
0.00253333
0.0023231
0.0031017
0.00243292
0.00164543
0.000680338
0.00114506
0.0010354
0.000658342
0.000546829
0.00091047
0.501889
0.486186
0.470939
0.45629
0.441936
0.427579
0.413053
0.398222
0.382928
0.366998
0.350268
0.332589
0.31383
0.293893
0.272749
0.250466
0.227245
0.203422
0.179455
0.155879
0.133247
0.112057
0.0926978
0.0754127
0.0602988
0.047329
0.0363843
0.0272877
0.019834
0.0138062
0.00899801
0.00521636
0.00377891
0.00413535
0.00439571
0.00450748
0.00450325
0.00448312
0.0045261
0.00468462
0.00471998
0.00466071
0.0045341
0.00436055
0.00415509
0.00392879
0.00368869
0.00343874
0.00317972
0.00291706
0.00265553
0.00240264
0.0021693
0.00196655
0.00180674
0.00170025
0.00165393
0.001669
0.00173371
0.00182031
0.00188104
0.00184716
0.00172722
0.00166649
0.00152959
0.0011231
0.000813863
0.00122734
0.00130155
0.00108191
0.000650518
0.000538059
0.0011279
0.00167822
0.00210701
0.00240018
0.00247745
0.00225013
0.00185425
0.00137929
0.00165505
0.002884
0.00531054
0.00794245
0.00888104
0.00815526
0.00663005
0.00401196
0.00604993
0.00494323
0.00240167
0.0160781
0.0222939
0.00867352
0.0135632
0.00620739
0.0019457
0.00316491
0.00230379
0.00115342
0.00393229
0.00847975
0.0108128
0.00903421
0.00629778
0.00362052
0.00417095
0.00529824
0.00495734
0.00270927
0.0024557
0.0033195
0.00267712
0.00187713
0.000746741
0.00128283
0.0011513
0.000723968
0.000631075
0.00101351
0.490734
0.475126
0.459975
0.44544
0.431281
0.417264
0.403286
0.389286
0.375187
0.360899
0.34633
0.331377
0.315921
0.299815
0.282899
0.265029
0.246117
0.226169
0.205316
0.183829
0.162107
0.140643
0.119963
0.100556
0.0828103
0.0669751
0.0531573
0.0413386
0.0314102
0.0232031
0.0165211
0.0111616
0.00692077
0.00429305
0.00374327
0.00407322
0.00423536
0.00427412
0.0042336
0.0043141
0.00448135
0.00456866
0.00455103
0.00445629
0.00430654
0.00411833
0.00390269
0.00366661
0.00341242
0.00314735
0.00287765
0.00261224
0.00236406
0.00214628
0.00197371
0.00185912
0.00181141
0.00183333
0.00191344
0.00202253
0.00210932
0.00209907
0.00191752
0.00179845
0.00166297
0.00123327
0.000759378
0.00125333
0.00137649
0.00116657
0.000710552
0.000597676
0.00123107
0.00182046
0.00227645
0.00258459
0.00265777
0.0023862
0.00189155
0.00126859
0.00189341
0.00340202
0.00616659
0.00885897
0.00954147
0.00862097
0.00694018
0.00440724
0.00655264
0.00546843
0.00320191
0.0156583
0.0232289
0.00708027
0.0141604
0.00707329
0.00230014
0.00341393
0.00240158
0.00110156
0.0048121
0.00965354
0.0115005
0.00920157
0.00632074
0.00354423
0.00431666
0.00553114
0.00528692
0.00291094
0.00258348
0.00348694
0.00289891
0.00212234
0.000826022
0.00141272
0.00126506
0.000789746
0.000713772
0.00111198
0.480425
0.464926
0.449886
0.43547
0.421486
0.407736
0.394142
0.380671
0.367282
0.353923
0.340549
0.327121
0.313585
0.299855
0.285806
0.271271
0.256068
0.240022
0.223013
0.20501
0.186102
0.166519
0.146631
0.126909
0.107866
0.0899849
0.0736538
0.0591218
0.0464946
0.0357521
0.0267846
0.0194283
0.0134871
0.00876403
0.00506801
0.00352022
0.00370767
0.00393005
0.00401517
0.00399809
0.00408275
0.00423923
0.0043826
0.00440988
0.00434881
0.00422435
0.00405327
0.00384689
0.0036099
0.00335206
0.00308156
0.00280909
0.00254991
0.00231958
0.00213564
0.00201358
0.00196453
0.00199309
0.00208851
0.00222061
0.00233518
0.00235231
0.0021787
0.00198855
0.0017856
0.00133887
0.000743813
0.00124605
0.00142476
0.0012327
0.00075891
0.000638573
0.00131244
0.00194066
0.00242486
0.00274856
0.0028185
0.00250235
0.0018994
0.00126876
0.00216062
0.00400923
0.00708016
0.00970751
0.0101033
0.00904002
0.00721109
0.00483745
0.00700571
0.00591264
0.00397583
0.0152596
0.0240257
0.00540679
0.0145593
0.00790374
0.00269638
0.00361755
0.00244794
0.00138425
0.00573778
0.0107609
0.0120026
0.00927438
0.00635188
0.00347753
0.00443572
0.00572866
0.00560875
0.00314563
0.00271313
0.00360351
0.00309156
0.00237296
0.000923126
0.00152945
0.00137582
0.000856623
0.000794559
0.00120565
0.470879
0.455492
0.44057
0.426271
0.412442
0.398913
0.385618
0.372534
0.359634
0.346878
0.334237
0.321695
0.309241
0.296853
0.284478
0.272023
0.259347
0.246269
0.232592
0.218126
0.202732
0.186351
0.169051
0.151044
0.132681
0.114424
0.096784
0.080241
0.0651796
0.0518422
0.0403239
0.0305973
0.0225438
0.0159954
0.0107614
0.00664283
0.00397532
0.00330639
0.00359441
0.0037305
0.00375554
0.00382244
0.00396234
0.0041656
0.00423998
0.00421464
0.00411556
0.00396038
0.00375735
0.00351975
0.00325846
0.0029864
0.00272153
0.00248219
0.00228899
0.00216044
0.00211026
0.0021452
0.00225566
0.00241105
0.00255499
0.00260325
0.00245414
0.00218087
0.00189277
0.00143589
0.0007946
0.00120151
0.00144212
0.00127623
0.000792152
0.000656309
0.00136869
0.00203692
0.00255145
0.00289164
0.00295881
0.00259764
0.00187738
0.00140988
0.00245608
0.00464365
0.00798062
0.0104691
0.0105725
0.00942808
0.00743373
0.00530806
0.00739556
0.00624034
0.00472888
0.014932
0.0247161
0.00387371
0.0147478
0.00867271
0.00312715
0.00376598
0.00243268
0.00179032
0.00668799
0.0117687
0.0123232
0.00928606
0.00641251
0.00342395
0.00453711
0.0058904
0.00591526
0.0034187
0.00285251
0.00367709
0.00324975
0.00261577
0.00104296
0.00162741
0.00148239
0.000925508
0.000873597
0.00129462
0.462022
0.446748
0.431943
0.417758
0.404068
0.390725
0.377671
0.36489
0.352359
0.340044
0.327918
0.315964
0.304181
0.292574
0.281137
0.269843
0.258632
0.247398
0.23599
0.224219
0.21188
0.198773
0.184744
0.169724
0.15377
0.137083
0.12001
0.103013
0.0866009
0.0712563
0.0573562
0.0451309
0.0346584
0.0258937
0.0187096
0.0129282
0.00835776
0.00480545
0.0031893
0.00322866
0.00342393
0.00349263
0.00353676
0.00365386
0.00391975
0.00404408
0.00405515
0.00398073
0.00383462
0.00363506
0.00339669
0.00313527
0.00287212
0.00262878
0.00242938
0.00229593
0.00224508
0.00228614
0.00241126
0.00259008
0.00276489
0.00284797
0.00273047
0.00236177
0.00197948
0.00151929
0.000853381
0.00111754
0.00142506
0.00129351
0.000806936
0.000647429
0.00139762
0.00210845
0.00265643
0.0030141
0.00307822
0.002671
0.00182465
0.00157316
0.00277787
0.00529348
0.0088474
0.0111309
0.0109623
0.00979751
0.00759213
0.00581696
0.0077086
0.00643179
0.00546387
0.0148359
0.0254124
0.00399095
0.0147208
0.00935207
0.00358121
0.00385041
0.00234677
0.00224503
0.00764081
0.0126505
0.0124802
0.00926679
0.00651367
0.00338686
0.00463325
0.00601903
0.00619893
0.00373264
0.00301071
0.00372375
0.00336967
0.00283519
0.00118993
0.00170088
0.00158306
0.000997014
0.000951399
0.00137916
0.453792
0.438628
0.423937
0.409861
0.396296
0.383113
0.37026
0.357722
0.345482
0.33351
0.321776
0.310261
0.298959
0.287874
0.277013
0.266382
0.255971
0.245746
0.235635
0.225524
0.215257
0.204641
0.193465
0.181522
0.168652
0.154783
0.139968
0.124405
0.108443
0.0925475
0.0772337
0.0629831
0.0501636
0.0389857
0.0295057
0.0216556
0.0152925
0.0102329
0.00627919
0.00360478
0.00283647
0.00309413
0.00321056
0.00322575
0.00339746
0.00364882
0.0038226
0.00387081
0.00381361
0.0036768
0.00348033
0.00324383
0.00299273
0.00275251
0.00255139
0.00241547
0.00236484
0.00241194
0.00255127
0.00275354
0.00296065
0.00308225
0.00300346
0.00261953
0.00212747
0.00158412
0.000898761
0.000992907
0.00137128
0.00128163
0.00080026
0.00060948
0.00139798
0.00215523
0.00274051
0.00311648
0.00317611
0.00272098
0.00174026
0.00175136
0.00312243
0.00594606
0.00965993
0.0116866
0.0112911
0.0101544
0.00766737
0.00634974
0.00792828
0.00648646
0.00618181
0.0148906
0.0260033
0.00543771
0.0144715
0.00991364
0.00404381
0.00386382
0.0021835
0.00274128
0.00857439
0.0133862
0.0125006
0.00924016
0.00665557
0.0033712
0.00473592
0.00612072
0.00645385
0.00408428
0.00319727
0.00376543
0.00345065
0.00301823
0.00136714
0.00174433
0.00167534
0.00107113
0.00102866
0.0014595
0.446135
0.431075
0.416495
0.402522
0.389069
0.376026
0.363343
0.351007
0.339002
0.327303
0.31588
0.304713
0.293787
0.283099
0.272655
0.262462
0.252529
0.242857
0.233431
0.224205
0.215102
0.206004
0.196751
0.187147
0.176976
0.166031
0.154153
0.141269
0.12743
0.112839
0.0978502
0.0829372
0.0686232
0.0553884
0.0435876
0.0334055
0.0248683
0.0178848
0.012292
0.00790116
0.00451603
0.002844
0.00274052
0.00291366
0.00296915
0.00312325
0.00334855
0.003576
0.00365386
0.00361475
0.00348699
0.00329556
0.00307124
0.00284435
0.00264807
0.00251344
0.00246463
0.00251795
0.00267109
0.00289674
0.00313756
0.00330131
0.0032684
0.00292057
0.00230211
0.00162568
0.000926348
0.00082819
0.0012799
0.00123869
0.000769773
0.000540835
0.00136903
0.00217751
0.00280436
0.00319902
0.0032514
0.00274554
0.00162328
0.0019424
0.00348457
0.00658678
0.0103995
0.012139
0.0115785
0.0104971
0.0076434
0.00687751
0.0080351
0.00642537
0.00688138
0.0150763
0.0264565
0.00677574
0.0139827
0.0103352
0.00449733
0.00380178
0.00193863
0.00327039
0.00946881
0.0139642
0.0124183
0.00922197
0.0068288
0.00338452
0.00485211
0.00620483
0.00667705
0.00446107
0.00341886
0.00382498
0.00349449
0.00315822
0.00157514
0.00175274
0.00175592
0.00114686
0.00110608
0.0015357
0.439002
0.424041
0.409566
0.39569
0.38234
0.36942
0.356884
0.344717
0.332906
0.321429
0.310258
0.29937
0.288749
0.278385
0.268275
0.258421
0.248832
0.239516
0.230479
0.221716
0.213203
0.204891
0.196698
0.188504
0.180145
0.171422
0.162121
0.152039
0.141017
0.128984
0.115995
0.102258
0.0881358
0.0741148
0.0607268
0.0484491
0.0376166
0.0283839
0.0207412
0.0145712
0.00969631
0.00591853
0.00323524
0.00236453
0.00259834
0.00270171
0.00283061
0.00302046
0.00329476
0.00340446
0.00338411
0.0032667
0.00309045
0.00289182
0.00271016
0.00258259
0.00253839
0.00259865
0.00276535
0.00301426
0.00329012
0.0034996
0.00351972
0.00321901
0.0025432
0.00171775
0.000932569
0.000625453
0.00115158
0.00116405
0.000714075
0.000440369
0.00131008
0.00217509
0.00284797
0.00326116
0.00330225
0.00274219
0.00147295
0.00214274
0.00398552
0.00732442
0.0110525
0.0124981
0.0118418
0.010817
0.00751376
0.00735968
0.00801188
0.00628898
0.00756045
0.0153595
0.0267414
0.00798207
0.0132213
0.0105936
0.0049218
0.00366324
0.00161095
0.00389697
0.0103721
0.0143804
0.0122686
0.00921998
0.00701754
0.003437
0.00498147
0.00628311
0.0068703
0.00484134
0.00367428
0.00391843
0.00350602
0.00325809
0.0018104
0.00172179
0.00182064
0.00122189
0.00118402
0.00160745
0.43235
0.417482
0.403107
0.389321
0.376066
0.363256
0.350846
0.338824
0.327177
0.315884
0.304919
0.294259
0.283888
0.273791
0.26396
0.25439
0.245083
0.236045
0.227282
0.218802
0.210606
0.202682
0.195003
0.187516
0.180138
0.172743
0.165166
0.157212
0.14867
0.139339
0.129064
0.117777
0.105539
0.0925638
0.0792282
0.0660313
0.0535129
0.0421451
0.0322373
0.0239072
0.0171095
0.0116976
0.00748171
0.00425795
0.00251518
0.0022625
0.00242461
0.00251534
0.00271676
0.00297941
0.00312232
0.0031219
0.00302505
0.00287686
0.00272461
0.00261318
0.00257828
0.0026472
0.00282758
0.00309962
0.00341176
0.00367043
0.00375074
0.00350821
0.00287346
0.00187871
0.000914233
0.00038748
0.000988892
0.0010587
0.000633047
0.000307284
0.00121989
0.00214675
0.00287007
0.00330115
0.00332598
0.00270811
0.00128904
0.00234725
0.00451104
0.00804804
0.0116112
0.012778
0.0120933
0.0111009
0.00728784
0.00775153
0.00785071
0.0061234
0.0082121
0.0157175
0.0268007
0.00899251
0.0121302
0.0106611
0.00529525
0.00345083
0.00120314
0.00462745
0.0112792
0.0146411
0.0120862
0.00923567
0.00720521
0.00354023
0.00511655
0.00636723
0.00704125
0.00520324
0.00395214
0.00404653
0.00349506
0.0033294
0.00206382
0.00164761
0.00186465
0.00129256
0.00126215
0.00167399
0.426141
0.41136
0.397078
0.383378
0.37021
0.357498
0.345201
0.333304
0.321796
0.310657
0.299864
0.289393
0.279228
0.269353
0.259755
0.250427
0.241362
0.232562
0.224029
0.215768
0.207786
0.200086
0.192663
0.185505
0.17858
0.171834
0.165178
0.158486
0.151596
0.144315
0.136438
0.127767
0.118152
0.10753
0.0959655
0.0836841
0.0710742
0.058649
0.0469553
0.0364554
0.0274306
0.019956
0.0139492
0.00923604
0.00561449
0.00289412
0.00190864
0.00212781
0.00223377
0.00243438
0.00262862
0.00280595
0.00283607
0.00277232
0.00267219
0.00259124
0.00257368
0.00265475
0.0028497
0.0031449
0.00349446
0.00380562
0.00395332
0.00378024
0.00320149
0.00220871
0.00104093
0.000129144
0.000795028
0.000925078
0.00056827
0.00023092
0.00114861
0.00208962
0.00286771
0.0033158
0.00331914
0.0026404
0.00107238
0.00254922
0.00502069
0.00871472
0.0120723
0.0129946
0.012338
0.0113346
0.0069936
0.00801275
0.00755612
0.00596809
0.0088288
0.0161217
0.0265399
0.00973503
0.0106351
0.0105046
0.0055939
0.00317137
0.00116292
0.00536361
0.0120919
0.0147572
0.0118985
0.00926583
0.00737972
0.00370266
0.00524477
0.00646419
0.0072004
0.00553758
0.00423641
0.00419287
0.00347927
0.00338749
0.00231936
0.00152601
0.00188264
0.00135421
0.00133907
0.00173411
0.42034
0.405641
0.391446
0.377827
0.364738
0.352115
0.339918
0.328132
0.316744
0.305737
0.295087
0.284775
0.274781
0.265091
0.255689
0.246565
0.23771
0.229118
0.220788
0.212721
0.204919
0.197388
0.190131
0.183147
0.17643
0.169965
0.163718
0.15763
0.151612
0.145539
0.139252
0.132565
0.125276
0.117193
0.10817
0.0981492
0.0872021
0.0755629
0.0636324
0.0519361
0.0410277
0.0313566
0.0231715
0.0165025
0.0112267
0.00715214
0.00406455
0.00222423
0.00181588
0.00198139
0.00212662
0.00229345
0.00246247
0.00253454
0.00252306
0.00249594
0.00250927
0.0026093
0.00282133
0.00314021
0.00352831
0.00389507
0.00411735
0.00402543
0.00351835
0.00256298
0.00135232
0.000175385
0.000698437
0.000964663
0.000749412
0.00037169
0.00129745
0.00213125
0.00283563
0.00330032
0.00327773
0.0025369
0.000908456
0.00273972
0.00549934
0.00930875
0.0124369
0.0131629
0.012574
0.0115068
0.00667328
0.00811353
0.00714425
0.00584262