/*--------------------------------*- C++ -*----------------------------------*\
| =========                 |                                                 |
| \\      /  F ield         | OpenFOAM: The Open Source CFD Toolbox           |
|  \\    /   O peration     | Version:  2412                                  |
|   \\  /    A nd           | Website:  www.openfoam.com                      |
|    \\/     M anipulation  |                                                 |
\*---------------------------------------------------------------------------*/
FoamFile
{
    version     2.0;
    format      ascii;
    arch        "LSB;label=32;scalar=64";
    class       volScalarField;
    location    "1.4";
    object      Co;
}
// * * * * * * * * * * * * * * * * * * * * * * * * * * * * * * * * * * * * * //

dimensions      [0 0 0 0 0 0 0];

internalField   nonuniform List<scalar> 
12600
(
0.314871
0.176713
0.100071
0.0629589
0.0449775
0.0350534
0.0286523
0.0240699
0.0205951
0.0178586
0.0156437
0.0138134
0.0122764
0.0109687
0.00984411
0.00886839
0.0080154
0.00726489
0.00660085
0.00601048
0.00548338
0.00501099
0.00458623
0.00420316
0.00385677
0.00354281
0.0032576
0.00299802
0.00276134
0.00254517
0.00234746
0.00216636
0.00200028
0.00184779
0.00170763
0.00157866
0.00145989
0.00135042
0.00124943
0.00115619
0.00107005
0.000990418
0.000916754
0.000848573
0.000785429
0.000726924
0.000672686
0.000622387
0.000575715
0.000532398
0.000492171
0.000454811
0.00042009
0.000387825
0.00035782
0.000329924
0.000303967
0.000279826
0.00025735
0.000236442
0.000216967
0.00019885
0.000181967
0.000166263
0.000151623
0.000138011
0.000125317
0.000113523
0.000102522
9.23118e-05
8.27886e-05
7.39638e-05
6.57361e-05
5.81289e-05
5.10429e-05
4.45116e-05
3.84386e-05
3.28639e-05
2.76967e-05
2.29781e-05
1.86269e-05
1.46788e-05
1.10677e-05
7.81644e-06
4.87885e-06
2.3191e-06
2.23131e-06
4.10972e-06
5.72618e-06
7.10422e-06
8.22945e-06
9.19933e-06
9.86143e-06
1.05586e-05
1.07475e-05
1.13455e-05
1.11085e-05
1.15928e-05
1.11886e-05
1.11855e-05
1.15699e-05
1.08973e-05
1.0877e-05
1.02367e-05
1.12658e-05
1.05936e-05
9.84938e-06
1.21543e-05
1.14155e-05
9.57651e-06
1.21409e-05
1.13895e-05
1.47844e-05
1.99874e-05
1.87283e-05
2.22005e-05
2.71695e-05
2.54296e-05
1.51863e-05
9.83393e-06
0.478014
0.376595
0.276451
0.202533
0.153172
0.120561
0.0982343
0.082128
0.0699546
0.0604174
0.0527389
0.0464252
0.0411464
0.0366731
0.0328403
0.0295257
0.0266369
0.0241021
0.0218652
0.0198812
0.0181138
0.016533
0.0151144
0.0138373
0.0126845
0.0116412
0.0106949
0.00983484
0.00905169
0.00833736
0.00768477
0.00708772
0.00654078
0.00603911
0.00557845
0.005155
0.00476537
0.00440653
0.00407578
0.00377067
0.003489
0.00322879
0.00298825
0.00276577
0.00255985
0.00236917
0.00219251
0.00202876
0.0018769
0.00173603
0.00160528
0.00148389
0.00137114
0.0012664
0.00116903
0.00107855
0.000994372
0.000916116
0.000843276
0.00077554
0.000712455
0.000653786
0.000599115
0.000548278
0.00050088
0.000456822
0.000415725
0.000377549
0.000341925
0.000308867
0.000278012
0.000249423
0.00022274
0.00019807
0.000175055
0.000153841
0.000134071
0.000115921
9.90459e-05
8.36295e-05
6.93583e-05
5.6394e-05
4.44837e-05
3.37279e-05
2.39706e-05
1.51982e-05
8.9189e-06
9.54106e-06
1.48917e-05
1.92913e-05
2.31254e-05
2.61839e-05
2.85693e-05
3.07779e-05
3.15668e-05
3.36687e-05
3.27753e-05
3.48947e-05
3.30751e-05
3.38957e-05
3.50634e-05
3.22323e-05
3.30293e-05
3.07155e-05
3.58648e-05
3.21575e-05
3.06199e-05
4.03722e-05
3.64359e-05
3.17392e-05
3.88628e-05
3.59963e-05
5.14338e-05
6.47737e-05
5.57553e-05
7.12828e-05
8.24733e-05
8.02e-05
4.83363e-05
3.04282e-05
0.512533
0.468676
0.397349
0.325501
0.264566
0.216494
0.179603
0.151277
0.129191
0.111627
0.0973869
0.0856419
0.0758119
0.0674825
0.0603507
0.0541898
0.0488269
0.0441279
0.0399869
0.0363194
0.0330567
0.0301428
0.0275312
0.0251833
0.0230665
0.0211531
0.0194197
0.017846
0.0164146
0.0151103
0.0139199
0.0128318
0.011836
0.0109234
0.0100861
0.009317
0.00860992
0.00795921
0.00735985
0.00680734
0.00629761
0.00582702
0.00539227
0.00499038
0.00461863
0.00427458
0.00395599
0.00366084
0.00338725
0.00313357
0.0028982
0.00267981
0.00247701
0.00228871
0.00211372
0.00195116
0.00179999
0.00165948
0.00152874
0.00140719
0.00129401
0.00118878
0.00109073
0.000999581
0.000914598
0.000835616
0.000761935
0.000693501
0.000629622
0.000570353
0.000514999
0.000463719
0.000415808
0.00037152
0.000330136
0.000291999
0.000256377
0.000223679
0.000193181
0.000165321
0.000139423
0.000115883
9.41593e-05
7.44884e-05
5.65849e-05
4.03655e-05
2.60066e-05
1.85572e-05
2.29153e-05
3.04872e-05
3.75857e-05
4.27066e-05
4.73223e-05
5.09863e-05
5.26218e-05
5.65311e-05
5.45634e-05
5.92823e-05
5.49162e-05
5.78727e-05
5.97134e-05
5.36054e-05
5.63149e-05
5.12435e-05
6.41565e-05
5.52038e-05
5.29213e-05
7.56415e-05
6.59599e-05
5.91734e-05
6.98757e-05
6.3254e-05
0.000100364
0.000118423
9.29166e-05
0.000129371
0.000141155
0.000145477
8.82578e-05
5.45103e-05
0.504479
0.491179
0.453236
0.402815
0.350392
0.301682
0.259143
0.223216
0.193304
0.168464
0.147752
0.130355
0.11562
0.103035
0.0922014
0.0828085
0.0746124
0.0674194
0.0610744
0.0554516
0.0504484
0.0459801
0.0419762
0.0383776
0.0351345
0.0322045
0.0295515
0.0271442
0.0249559
0.0229631
0.0211455
0.0194851
0.0179664
0.0165755
0.0153001
0.0141294
0.0130536
0.0120642
0.0111534
0.0103142
0.00954041
0.00882642
0.00816712
0.00755796
0.00699476
0.00647377
0.00599153
0.00554498
0.00513122
0.00474773
0.00439207
0.00406217
0.00375594
0.0034717
0.00320766
0.00296243
0.00273445
0.00252262
0.00232555
0.00214239
0.00197188
0.00181337
0.00166571
0.00152845
0.00140049
0.00128158
0.00117065
0.00106762
0.000971435
0.000882189
0.00079881
0.000721561
0.000649337
0.00058257
0.000520108
0.00046254
0.000408669
0.000359218
0.00031297
0.000270715
0.000231298
0.000195444
0.000162226
0.000132072
0.00010455
7.94469e-05
5.72377e-05
3.66076e-05
3.18153e-05
3.9825e-05
5.08631e-05
5.80691e-05
6.55543e-05
7.06075e-05
7.35158e-05
7.9429e-05
7.62123e-05
8.43418e-05
7.65223e-05
8.29207e-05
8.50969e-05
7.51714e-05
8.05528e-05
7.1317e-05
9.54303e-05
7.95898e-05
7.56383e-05
0.000116627
9.9161e-05
9.20404e-05
0.000104144
9.17968e-05
0.000160199
0.000178553
0.000129566
0.000194527
0.000199618
0.000218934
0.00013345
8.19605e-05
0.488287
0.483457
0.465233
0.435317
0.398658
0.359563
0.321125
0.28525
0.252855
0.224188
0.199103
0.177263
0.158268
0.141725
0.127276
0.114611
0.103468
0.0936279
0.0849055
0.0771472
0.0702238
0.0640269
0.0584645
0.0534588
0.0489431
0.0448606
0.0411621
0.037805
0.0347527
0.0319728
0.0294372
0.0271213
0.0250032
0.0230637
0.0212856
0.0196539
0.018155
0.0167767
0.0155083
0.0143401
0.0132633
0.01227
0.0113531
0.0105062
0.00972349
0.00899969
0.00832995
0.00770997
0.00713571
0.00660362
0.0061103
0.00565285
0.00522835
0.00483444
0.00446862
0.00412895
0.00381325
0.00351999
0.00324723
0.00299376
0.00275784
0.00253856
0.00233431
0.00214448
0.00196753
0.00180309
0.0016497
0.00150723
0.00137421
0.00125078
0.00113542
0.00102854
0.000928551
0.000836099
0.000749526
0.000669719
0.000594924
0.000526248
0.000461873
0.000403038
0.000347987
0.000297872
0.000251281
0.00020889
0.000170096
0.000134506
0.000103026
7.33698e-05
5.06456e-05
4.62478e-05
6.20109e-05
7.14367e-05
8.25188e-05
8.89773e-05
9.3685e-05
0.000101807
9.73163e-05
0.000109606
9.76067e-05
0.000108724
0.000110787
9.66675e-05
0.000105555
9.16875e-05
0.000128944
0.000104876
9.78781e-05
0.000162104
0.000135136
0.000130323
0.000140798
0.000120406
0.000229351
0.00024287
0.000164962
0.000264524
0.000254681
0.000298429
0.00018248
0.000112875
0.474084
0.468385
0.45743
0.439507
0.415731
0.387978
0.358138
0.327849
0.298338
0.270415
0.244542
0.220914
0.199547
0.180344
0.163146
0.147768
0.134022
0.121726
0.110716
0.100841
0.0919695
0.0839853
0.0767865
0.0702842
0.0644008
0.0590685
0.0542277
0.0498266
0.0458193
0.0421656
0.0388299
0.035781
0.0329908
0.0304346
0.0280905
0.0259386
0.0239616
0.0221434
0.0204701
0.0189289
0.0175084
0.0161981
0.0149887
0.0138717
0.0128395
0.0118852
0.0110022
0.010185
0.00942825
0.00872716
0.00807728
0.00747475
0.00691575
0.00639711
0.00591554
0.00546848
0.00505305
0.0046672
0.00430839
0.00397499
0.00366472
0.00337637
0.00310783
0.00285823
0.0026256
0.00240942
0.00220776
0.00202045
0.00184555
0.00168324
0.00153152
0.00139091
0.0012593
0.00113759
0.00102352
0.000918339
0.00081963
0.000728966
0.000643814
0.000565953
0.000492907
0.000426354
0.000364289
0.000307703
0.000255783
0.000207919
0.000165564
0.000125243
9.20367e-05
6.52878e-05
6.99475e-05
8.18474e-05
9.73558e-05
0.00010533
0.000112472
0.000123026
0.000117398
0.000134538
0.000117832
0.00013489
0.000136312
0.000117908
0.000131079
0.000112901
0.000163949
0.000130462
0.000118843
0.000210855
0.000172888
0.000173784
0.000179034
0.000147931
0.000305931
0.000309206
0.000198404
0.000336971
0.00030339
0.000381809
0.000234073
0.000147467
0.462783
0.454436
0.444575
0.431489
0.4149
0.395252
0.373276
0.349816
0.325691
0.301603
0.278106
0.255604
0.234365
0.214544
0.196203
0.179341
0.163909
0.14983
0.137012
0.125356
0.114762
0.105134
0.0963819
0.0884218
0.081177
0.0745781
0.0685622
0.0630729
0.0580596
0.0534766
0.0492832
0.0454428
0.0419227
0.0386933
0.0357282
0.0330037
0.0304982
0.0281925
0.0260692
0.0241125
0.0223081
0.0206433
0.0191062
0.0176863
0.0163739
0.0151603
0.0140375
0.0129982
0.0120356
0.0111439
0.0103173
0.00955102
0.00884008
0.00818051
0.00756812
0.00699964
0.00647143
0.00598085
0.00552467
0.00510083
0.00470643
0.00433989
0.00399854
0.00368129
0.0033856
0.00311081
0.00285447
0.00261635
0.00239398
0.00218759
0.00199461
0.00181572
0.00164822
0.00149327
0.00134794
0.00121388
0.00108793
0.000972196
0.000863311
0.000763693
0.000670018
0.000584591
0.000504705
0.000431734
0.000364607
0.000302476
0.00024743
0.000194604
0.000151198
0.000106383
8.82194e-05
8.81459e-05
0.000109042
0.000118746
0.000129084
0.000142324
0.000135873
0.000158491
0.000136775
0.000160916
0.00016114
0.000138659
0.000156791
0.000134323
0.000199689
0.000155606
0.000137815
0.000261677
0.000211331
0.000221935
0.000218092
0.000173297
0.000387754
0.000375547
0.000229269
0.00040936
0.000343053
0.000466946
0.000287163
0.000186077
0.453441
0.443032
0.432419
0.420551
0.406961
0.391608
0.374669
0.356453
0.337332
0.31769
0.297889
0.278251
0.259049
0.240499
0.222765
0.20596
0.190153
0.175372
0.16162
0.148874
0.137096
0.126237
0.116241
0.107051
0.0986087
0.0908563
0.0837391
0.0772053
0.0712062
0.0656968
0.0606355
0.0559839
0.0517072
0.0477731
0.0441526
0.0408189
0.0377478
0.0349171
0.0323067
0.0298982
0.0276749
0.0256216
0.0237244
0.0219706
0.0203486
0.0188479
0.0174588
0.0161725
0.0149808
0.0138765
0.0128526
0.0119032
0.0110222
0.0102047
0.00944563
0.0087409
0.00808603
0.00747776
0.00691213
0.00638654
0.00589744
0.00544285
0.0050195
0.00462598
0.00425919
0.0039183
0.00360025
0.00330478
0.0030288
0.00277259
0.00253297
0.0023108
0.00210268
0.00191008
0.00172932
0.00156251
0.00140563
0.00126139
0.00112549
0.00100107
0.000883839
0.000776821
0.000676493
0.000584691
0.000500027
0.000421402
0.000351616
0.000284237
0.000228867
0.000171075
0.000129412
9.9751e-05
0.000116384
0.000128132
0.000142583
0.000158797
0.000152039
0.000180704
0.000153919
0.000186183
0.000184673
0.000158628
0.000182252
0.000155516
0.000235406
0.000179442
0.000154139
0.0003134
0.000249314
0.000274018
0.000257241
0.000195524
0.000472383
0.000440042
0.000257142
0.000479141
0.000371242
0.00055176
0.000340894
0.000229156
0.44537
0.433639
0.422117
0.410222
0.39759
0.384087
0.369726
0.354602
0.33886
0.322664
0.306187
0.289597
0.273059
0.256724
0.240728
0.225189
0.210206
0.195857
0.182197
0.169264
0.157076
0.145636
0.134935
0.124953
0.115665
0.107037
0.0990359
0.0916238
0.084764
0.0784194
0.0725544
0.0671342
0.0621263
0.0574997
0.0532252
0.0492759
0.0456265
0.0422537
0.0391359
0.036253
0.0335868
0.0311202
0.0288376
0.0267247
0.0247683
0.0229562
0.0212772
0.0197212
0.0182786
0.0169408
0.0156997
0.0145482
0.0134793
0.0124869
0.0115651
0.010709
0.00991327
0.00917392
0.00848622
0.00784706
0.00725214
0.00669908
0.00618393
0.00570498
0.00525849
0.00484343
0.00445611
0.0040962
0.00375995
0.00344771
0.00315559
0.00288465
0.00263074
0.00239567
0.0021749
0.00197107
0.00177919
0.00160267
0.00143613
0.00128353
0.00113949
0.00100786
0.000884184
0.000770828
0.00066602
0.000568424
0.000481589
0.000397375
0.000328031
0.00025517
0.000202624
0.000140026
0.000127892
0.000132169
0.000151857
0.000171369
0.00016505
0.000200269
0.000168627
0.000209935
0.000206233
0.000177433
0.000206897
0.000176051
0.000270336
0.000200993
0.000167203
0.000364897
0.00028564
0.000328994
0.000295754
0.000213746
0.000557187
0.000500989
0.000283397
0.00054379
0.000385784
0.000634258
0.000394599
0.000277247
0.438234
0.425654
0.413434
0.401238
0.388816
0.376029
0.362844
0.349294
0.335443
0.321372
0.307161
0.292884
0.278617
0.264433
0.250401
0.236589
0.223062
0.209883
0.197108
0.184786
0.172957
0.161652
0.150894
0.140696
0.13106
0.121984
0.113458
0.105467
0.0979918
0.0910118
0.084503
0.0784407
0.0727998
0.0675552
0.0626821
0.0581566
0.0539554
0.0500564
0.0464387
0.0430824
0.0399688
0.0370806
0.0344012
0.0319155
0.0296093
0.0274694
0.0254834
0.0236402
0.021929
0.0203403
0.0188648
0.0174944
0.0162212
0.0150383
0.0139386
0.0129167
0.0119662
0.0110826
0.0102603
0.00949564
0.00878364
0.00812147
0.00750444
0.00693057
0.0063954
0.00589773
0.00543316
0.00500131
0.00459772
0.0042228
0.0038719
0.00354631
0.00324102
0.00295825
0.00269252
0.00244702
0.00221571
0.00200276
0.00180161
0.00161714
0.00144273
0.00128315
0.00113291
0.000994976
0.000867131
0.000747809
0.000641337
0.000537754
0.000452154
0.000361883
0.000296433
0.000218047
0.00016974
0.000135858
0.000155598
0.000178752
0.000173891
0.000216106
0.00018012
0.00023126
0.000225046
0.000194572
0.000230011
0.000195391
0.000303691
0.000219186
0.000176409
0.000415088
0.000319093
0.000385552
0.000332858
0.000227205
0.000639413
0.000556812
0.000306878
0.000600891
0.000384717
0.00071258
0.000447751
0.000351973
0.43185
0.4187
0.405982
0.393488
0.381047
0.368535
0.355897
0.343135
0.330282
0.317387
0.304501
0.291671
0.278934
0.266324
0.253868
0.241593
0.229523
0.217683
0.206102
0.194807
0.183827
0.17319
0.162921
0.153043
0.143574
0.134527
0.12591
0.117728
0.109979
0.10266
0.0957609
0.0892711
0.0831771
0.0774636
0.0721139
0.0671108
0.0624364
0.058073
0.0540028
0.0502085
0.0466731
0.0433803
0.0403146
0.0374611
0.0348055
0.0323348
0.030036
0.0278977
0.0259083
0.0240579
0.0223365
0.0207351
0.0192451
0.017859
0.016569
0.0153687
0.0142513
0.0132115
0.0122431
0.0113418
0.010502
0.00972041
0.00899164
0.00831344
0.00768061
0.0070918
0.00654187
0.0060304
0.00555215
0.00510766
0.00469142
0.00430498
0.00394243
0.00360642
0.00329042
0.0029983
0.0027228
0.00246897
0.00222892
0.00200855
0.00179988
0.00160872
0.00142839
0.00126257
0.0011085
0.000964409
0.000835419
0.000709664
0.000605231
0.000494956
0.000414317
0.000317863
0.000257924
0.000178783
0.000161184
0.00017939
0.000177342
0.00022693
0.000187439
0.000249065
0.00024021
0.000209395
0.000250715
0.000212882
0.00033463
0.000232855
0.000188889
0.000462915
0.000348451
0.000442126
0.000367691
0.000245456
0.000716267
0.000606
0.000324183
0.000648212
0.000366227
0.000785038
0.000499879
0.00044908
0.426091
0.412544
0.399471
0.386733
0.374212
0.361806
0.349451
0.337124
0.324833
0.312608
0.300483
0.288496
0.276677
0.265051
0.253635
0.242439
0.23147
0.22073
0.210224
0.199956
0.189931
0.18016
0.170653
0.161422
0.15248
0.143842
0.135517
0.127518
0.119852
0.112525
0.10554
0.0988964
0.0925928
0.086624
0.0809834
0.0756622
0.0706505
0.0659369
0.0615095
0.0573556
0.0534623
0.0498165
0.0464049
0.043215
0.0402337
0.0374492
0.0348493
0.0324228
0.0301588
0.028047
0.0260773
0.024241
0.0225286
0.0209325
0.0194443
0.0180574
0.0167642
0.0155592
0.0144354
0.0133883
0.0124115
0.0115014
0.0106521
0.00986091
0.00912203
0.008434
0.00779089
0.00719231
0.00663219
0.00611124
0.00562305
0.0051695
0.00474366
0.00434871
0.00397697
0.00363303
0.00330836
0.00300893
0.00272543
0.00246488
0.00221781
0.00199115
0.00177694
0.00157963
0.00139586
0.00122368
0.00106899
0.000917984
0.000791836
0.000658696
0.000560276
0.000443147
0.000369105
0.000271566
0.000209815
0.000180924
0.000173954
0.000231204
0.000189408
0.000262056
0.000250665
0.000221057
0.000267939
0.000227736
0.000362224
0.000240739
0.000207305
0.000507302
0.000372489
0.000496925
0.000399238
0.000273461
0.000784976
0.00064706
0.00033494
0.000683737
0.000336963
0.000850155
0.000550461
0.000563333
0.420863
0.407035
0.393706
0.380779
0.368169
0.355795
0.343596
0.331537
0.319605
0.307807
0.296163
0.2847
0.273443
0.262414
0.251632
0.241108
0.230847
0.22085
0.211112
0.201627
0.192389
0.183392
0.174631
0.166104
0.157812
0.149756
0.14194
0.13437
0.127052
0.119991
0.113194
0.106664
0.100405
0.0944201
0.0887083
0.0832688
0.0780989
0.0731943
0.0685495
0.0641577
0.0600112
0.0561017
0.0524201
0.0489571
0.0457028
0.0426475
0.0397812
0.0370943
0.0345769
0.03222
0.030014
0.0279506
0.0260208
0.024217
0.0225309
0.0209558
0.0194839
0.0181096
0.0168255
0.0156269
0.014507
0.013462
0.0124853
0.0115743
0.0107225
0.00992837
0.00918524
0.00849286
0.00784428
0.00724048
0.00667408
0.00614741
0.00565241
0.00519291
0.00475998
0.00435903
0.00398013
0.0036303
0.00329869
0.0029935
0.00270371
0.00243741
0.00218532
0.00195268
0.00173549
0.00153164
0.00134782
0.0011682
0.00101716
0.000858019
0.000738902
0.000598208
0.000507383
0.000389032
0.000313773
0.000235013
0.000177541
0.000227075
0.000184581
0.000268706
0.000255139
0.000228486
0.000280401
0.000239003
0.000385403
0.000241469
0.000225106
0.000547094
0.000389978
0.000547968
0.000426263
0.000302604
0.000842846
0.000678449
0.000343331
0.00070568
0.000342273
0.000906738
0.000598819
0.000694538
0.416092
0.40206
0.388546
0.375475
0.362785
0.350412
0.338302
0.326415
0.314728
0.303231
0.29193
0.280835
0.269964
0.259335
0.248962
0.238861
0.22904
0.219504
0.210251
0.201276
0.192572
0.184129
0.175935
0.167981
0.160258
0.152757
0.145472
0.138399
0.131536
0.124883
0.11844
0.112208
0.106191
0.100389
0.0948067
0.0894441
0.0843028
0.0793829
0.0746836
0.0702031
0.0659387
0.0618868
0.0580426
0.054401
0.050956
0.0477011
0.0446294
0.0417339
0.0390069
0.0364411
0.0340287
0.0317625
0.0296346
0.0276383
0.0257657
0.0240109
0.022366
0.020826
0.0193832
0.0180334
0.0167691
0.0155871
0.01448
0.0134457
0.0124767
0.0115719
0.0107239
0.00993264
0.0091904
0.00849853
0.00784863
0.0072436
0.00667423
0.00614507
0.00564588
0.00518303
0.00474506
0.00434016
0.00395584
0.00360159
0.00326473
0.00295461
0.00266053
0.00238859
0.0021341
0.00189481
0.00167818
0.00146638
0.00128699
0.00109847
0.000955417
0.000787997
0.000677388
0.000535362
0.000443683
0.000345336
0.000244056
0.000237043
0.000171175
0.000267225
0.000252079
0.000230334
0.000286577
0.000245536
0.000402906
0.000233544
0.000239113
0.000580983
0.000399659
0.000593109
0.000447257
0.000327395
0.000887284
0.000698524
0.000350759
0.000712374
0.000383208
0.000953884
0.000676743
0.000874432
0.411716
0.397536
0.383887
0.37071
0.357955
0.34557
0.33351
0.321736
0.31022
0.298945
0.287901
0.277088
0.266514
0.256188
0.246119
0.23632
0.2268
0.217566
0.208621
0.199965
0.191594
0.1835
0.175676
0.16811
0.16079
0.153705
0.146843
0.140195
0.133751
0.127503
0.121446
0.115575
0.109887
0.10438
0.0990531
0.0939061
0.0889393
0.0841532
0.0795481
0.0751244
0.0708816
0.0668192
0.0629357
0.0592293
0.0556974
0.0523369
0.0491439
0.0461144
0.0432434
0.0405262
0.0379571
0.035531
0.0332414
0.0310834
0.0290502
0.0271369
0.0253365
0.0236446
0.0220542
0.0205614
0.0191591
0.0178442
0.0166095
0.015453
0.014367
0.0133508
0.0123963
0.011504
0.0106654
0.00988232
0.00914544
0.00845837
0.00781071
0.00720791
0.00663833
0.00610944
0.00560821
0.00514409
0.00470289
0.00429546
0.00390743
0.00354946
0.00320938
0.00289421
0.00259853
0.00231996
0.00206675
0.00181906
0.00160765
0.00138617
0.00121567
0.00101812
0.000884398
0.000715502
0.000604338
0.000483545
0.000364776
0.000316094
0.000181631
0.000255541
0.000239559
0.00022494
0.000284649
0.000245929
0.000413217
0.00021529
0.000247739
0.00060742
0.000400197
0.000630063
0.000460389
0.000345463
0.000915782
0.000705474
0.000355458
0.000702082
0.000426986
0.000990996
0.000769666
0.00109043
0.407683
0.393398
0.379652
0.366396
0.353591
0.341193
0.329162
0.317463
0.306069
0.294956
0.284109
0.273519
0.263183
0.253104
0.243284
0.233729
0.224446
0.215441
0.20672
0.198283
0.190131
0.18226
0.174666
0.16734
0.160275
0.153458
0.14688
0.140528
0.134392
0.12846
0.122723
0.117171
0.111795
0.106591
0.101551
0.0966716
0.0919494
0.0873819
0.0829674
0.0787049
0.0745935
0.0706327
0.0668219
0.0631606
0.0596477
0.0562823
0.0530627
0.0499873
0.0470533
0.0442586
0.0415994
0.0390731
0.0366751
0.0344023
0.0322494
0.0302134
0.0282882
0.026471
0.0247552
0.0231383
0.0216134
0.0201786
0.0188266
0.0175561
0.0163594
0.0152365
0.0141788
0.0131876
0.0122535
0.0113795
0.0105551
0.00978483
0.00905719
0.00837871
0.0077363
0.00713869
0.00657125
0.00604481
0.00554346
0.0050795
0.00463684
0.00422748
0.00383785
0.00347578
0.00313529
0.00281373
0.00252026
0.00223296
0.00198583
0.00172772
0.00152606
0.00129478
0.00113434
0.000935108
0.000801111
0.000654477
0.000515367
0.000447244
0.000282625
0.000288119
0.000215122
0.0002103
0.000272446
0.000238458
0.000414514
0.000184808
0.000249204
0.000624519
0.000390128
0.0006564
0.000463479
0.000354232
0.000925871
0.000697296
0.000357557
0.000672707
0.000472491
0.00101763
0.00086812
0.00133178
0.403952
0.389591
0.375776
0.362465
0.349623
0.337214
0.325202
0.313556
0.302249
0.291257
0.280561
0.270146
0.260003
0.250128
0.240518
0.231172
0.222094
0.213285
0.20475
0.19649
0.188506
0.180797
0.173362
0.166194
0.15929
0.15264
0.146236
0.14007
0.13413
0.128406
0.122888
0.117564
0.112426
0.107463
0.102667
0.0980304
0.0935458
0.0892075
0.0850105
0.0809509
0.0770251
0.0732309
0.069566
0.0660289
0.0626182
0.0593331
0.0561721
0.0531348
0.0502192
0.0474249
0.0447495
0.042192
0.0397494
0.0374206
0.0352017
0.0330913
0.0310849
0.0291809
0.0273741
0.0256632
0.0240421
0.0225101
0.0210602
0.0196926
0.0183993
0.0171814
0.0160302
0.014948
0.0139248
0.0129648
0.0120565
0.0112057
0.0103998
0.00964656
0.00893153
0.00826486
0.00763033
0.00704029
0.00647711
0.00595462
0.00545509
0.00499181
0.00454994
0.00413807
0.00374973
0.00338196
0.00304493
0.00271457
0.00242818
0.00212986
0.00189332
0.00162468
0.00143373
0.00120049
0.00104005
0.000863808
0.000701339
0.000609715
0.000422935
0.000412282
0.000272563
0.000206074
0.000247322
0.000221007
0.00040461
0.0001484
0.000241536
0.000629971
0.000367763
0.000669527
0.000453985
0.000350992
0.000915048
0.000671745
0.000356964
0.000621418
0.000517731
0.0011059
0.00103698
0.00159518
0.400487
0.386074
0.37221
0.358862
0.345995
0.333579
0.321582
0.309975
0.298733
0.287832
0.277252
0.266975
0.256988
0.247281
0.237848
0.228683
0.219784
0.21115
0.202782
0.19468
0.186844
0.179273
0.171967
0.164922
0.158135
0.151599
0.14531
0.13926
0.133442
0.127845
0.122462
0.117282
0.112297
0.107496
0.102871
0.0984115
0.0941102
0.0899588
0.0859497
0.0820767
0.0783337
0.0747158
0.0712183
0.0678379
0.064571
0.0614156
0.0583689
0.0554299
0.0525962
0.0498673
0.0472411
0.0447173
0.0422936
0.0399697
0.0377428
0.0356128
0.0335761
0.0316329
0.0297784
0.0280133
0.0263318
0.024735
0.0232162
0.0217771
0.0204097
0.0191169
0.0178894
0.0167312
0.0156318
0.0145967
0.0136136
0.0126901
0.0118121
0.0109893
0.0102056
0.00947289
0.00877343
0.00812124
0.00749702
0.00691619
0.00635948
0.00584147
0.0053462
0.00488289
0.00444486
0.00402861
0.00364555
0.00326936
0.00294069
0.00259899
0.00232409
0.00201464
0.0017894
0.00151846
0.00132782
0.00111794
0.00092888
0.000809226
0.000598058
0.000567774
0.000404125
0.000298582
0.000253387
0.000191974
0.000380924
0.000113031
0.000222568
0.000620938
0.000331075
0.000666641
0.000428997
0.000332949
0.000880683
0.000626281
0.000353249
0.000544346
0.00055976
0.00119791
0.00122134
0.0018762
0.397256
0.382809
0.368914
0.355541
0.34266
0.330242
0.318258
0.306683
0.295491
0.284661
0.274171
0.264003
0.254142
0.244573
0.235288
0.226278
0.217536
0.209057
0.200841
0.192884
0.185185
0.177742
0.170554
0.163619
0.156933
0.150492
0.144292
0.138327
0.132591
0.127078
0.121779
0.116688
0.111795
0.107093
0.102573
0.0982264
0.094045
0.0900206
0.086145
0.0824109
0.0788108
0.0753383
0.071987
0.0687517
0.065627
0.062609
0.0596932
0.056877
0.0541567
0.0515308
0.0489961
0.046552
0.0441954
0.0419266
0.0397423
0.0376434
0.035626
0.0336916
0.0318357
0.0300602
0.0283597
0.0267367
0.0251847
0.023707
0.0222957
0.0209552
0.0196762
0.0184642
0.0173083
0.0162157
0.0151735
0.0141908
0.0132526
0.0123703
0.0115267
0.0107356
0.00997746
0.00926829
0.00858725
0.00795137
0.00734006
0.00676903
0.00622157
0.00570725
0.00521955
0.00475416
0.00432406
0.00390049
0.00352759
0.00314024
0.00282418
0.00247102
0.00220806
0.00189596
0.00167141
0.00142384
0.00120481
0.00105232
0.000814177
0.000758903
0.000569092
0.000448444
0.00037742
0.000263532
0.000372219
6.93771e-05
0.000190004
0.000593912
0.00027753
0.000644672
0.000385229
0.000297276
0.000819913
0.000557955
0.000345435
0.000436639
0.000685984
0.00138053
0.00142282
0.00216978
0.394235
0.379766
0.365853
0.352467
0.33958
0.327165
0.315195
0.303647
0.292496
0.281723
0.271305
0.261224
0.251463
0.242008
0.232846
0.223967
0.21536
0.207019
0.198939
0.191114
0.183543
0.176221
0.169145
0.162314
0.155724
0.149372
0.143253
0.137362
0.131696
0.126247
0.121011
0.11598
0.111148
0.106508
0.102052
0.0977726
0.0936632
0.0897158
0.0859229
0.0822773
0.0787715
0.0753989
0.0721524
0.069026
0.0660133
0.0631093
0.0603081
0.0576059
0.0549974
0.0524799
0.0500488
0.0477025
0.0454368
0.0432512
0.0411416
0.0391086
0.0371479
0.035261
0.0334431
0.0316968
0.0300164
0.0284055
0.0268574
0.0253767
0.0239552
0.0225989
0.0212981
0.02006
0.0188732
0.0177466
0.0166666
0.0156443
0.0146635
0.0137377
0.0128484
0.0120113
0.0112057
0.0104493
0.00972002
0.00903639
0.00837682
0.00775797
0.00716277
0.0066008
0.00606621
0.00555347
0.00507759
0.00460707
0.00418978
0.00375602
0.00339733
0.00299865
0.00269538
0.00233937
0.00207763
0.00178861
0.00153629
0.00134621
0.00107816
0.000992523
0.000773416
0.000634091
0.000533385
0.000407961
0.000474604
0.000108998
0.000177059
0.000544427
0.000203798
0.00060026
0.000318945
0.000241199
0.00072958
0.000463213
0.000331649
0.000317207
0.000846166
0.00158944
0.00164277
0.00247059
0.3914
0.376921
0.363
0.349609
0.336723
0.324315
0.31236
0.300837
0.289722
0.278995
0.268636
0.258626
0.248948
0.239586
0.230526
0.221757
0.213266
0.205045
0.197085
0.189381
0.181926
0.174717
0.167748
0.161018
0.154521
0.148254
0.142214
0.136395
0.130794
0.125406
0.120224
0.115244
0.11046
0.105865
0.101454
0.0972193
0.093155
0.0892543
0.0855106
0.0819174
0.0784679
0.0751557
0.0719743
0.0689177
0.0659793
0.063154
0.0604352
0.0578188
0.0552985
0.052871
0.0505303
0.0482743
0.0460973
0.0439983
0.0419717
0.0400178
0.0381308
0.0363125
0.0345567
0.0328662
0.0312345
0.0296658
0.0281523
0.0266998
0.0252992
0.023958
0.0226654
0.0214304
0.0202405
0.0191067
0.018014
0.0169757
0.0159744
0.0150257
0.0141097
0.0132442
0.0124071
0.0116181
0.0108539
0.0101343
0.0094373
0.00878
0.00814558
0.00754311
0.00696804
0.00641307
0.00589586
0.00538167
0.00492249
0.00444398
0.0040433
0.0035992
0.00325462
0.00285328
0.00255208
0.00221872
0.0019302
0.00169829
0.00139721
0.0012762
0.00102392
0.000862432
0.000727219
0.000587443
0.000629712
0.000244577
0.000299168
0.000593327
0.000173973
0.000560499
0.00022545
0.000162305
0.000606487
0.000337324
0.000409172
0.000358656
0.00111062
0.0018167
0.00188257
0.00277306
0.388731
0.374251
0.360329
0.346941
0.334061
0.321664
0.309726
0.298227
0.287144
0.276458
0.266148
0.256197
0.246588
0.237303
0.228329
0.219652
0.21126
0.203142
0.195288
0.187691
0.180342
0.173237
0.166369
0.159733
0.153326
0.147144
0.141181
0.135433
0.129897
0.124568
0.11944
0.114509
0.109769
0.105216
0.100842
0.0966427
0.0926121
0.0887443
0.0850331
0.0814729
0.0780573
0.0747811
0.0716376
0.0686219
0.0657276
0.0629498
0.0602823
0.0577209
0.0552591
0.0528937
0.050618
0.0484299
0.0463226
0.044295
0.0423402
0.0404584
0.0386425
0.0368941
0.0352056
0.0335801
0.0320093
0.030498
0.0290371
0.0276329
0.0262752
0.0249722
0.0237119
0.0225049
0.0213369
0.0202207
0.0191401
0.01811
0.0171117
0.0161627
0.0152417
0.0143684
0.0135196
0.0127163
0.0119345
0.0111951
0.0104758
0.00979373
0.00913298
0.00850138
0.0078965
0.00730847
0.00675832
0.0062075
0.00571255
0.00519425
0.00475537
0.00426878
0.00388439
0.00343863
0.00309747
0.00271862
0.00239196
0.00211532
0.00177815
0.00161774
0.00132789
0.001141
0.000966106
0.000808526
0.000820318
0.00041663
0.000453767
0.000724939
0.000271088
0.000655787
0.000286117
0.000225996
0.000618692
0.000383839
0.000613999
0.000404918
0.00139737
0.00205995
0.00214262
0.00307121
0.386212
0.371737
0.357821
0.344441
0.331571
0.319189
0.307271
0.295795
0.284742
0.274092
0.263825
0.253925
0.244373
0.235154
0.226252
0.217653
0.209345
0.201316
0.193554
0.186051
0.178797
0.171786
0.16501
0.158465
0.152143
0.146041
0.140154
0.134477
0.129006
0.123736
0.118662
0.113781
0.109085
0.104572
0.100235
0.0960692
0.0920691
0.0882295
0.0845447
0.0810096
0.0776184
0.0743661
0.0712468
0.068256
0.0653876
0.0626375
0.0599995
0.05747
0.0550427
0.0527147
0.0504792
0.0483344
0.0462732
0.0442946
0.0423912
0.0405632
0.0388026
0.0371112
0.0354801
0.0339127
0.0323994
0.0309453
0.0295396
0.0281896
0.026883
0.0256292
0.0244143
0.0232502
0.0221207
0.0210402
0.0199906
0.0189885
0.0180135
0.0170846
0.0161793
0.0153186
0.0144783
0.0136803
0.0129005
0.0121596
0.0114361
0.0107462
0.0100757
0.00943014
0.00881019
0.00820238
0.00763197
0.00705579
0.00653543
0.00598648
0.00551719
0.00499493
0.00457576
0.00408991
0.00371108
0.00328852
0.00292354
0.00260176
0.00222602
0.00202411
0.00169226
0.00147737
0.00125788
0.00107835
0.00105385
0.000630803
0.000645354
0.000885512
0.000396459
0.000786347
0.000399873
0.000350923
0.000691254
0.000473734
0.00085728
0.000484356
0.00170639
0.00231703
0.0024211
0.00335813
0.383828
0.369363
0.355459
0.342091
0.329236
0.31687
0.304972
0.293521
0.282496
0.271879
0.261652
0.251795
0.242294
0.23313
0.22429
0.215758
0.207522
0.199569
0.191887
0.184467
0.177297
0.170371
0.163679
0.157216