/*--------------------------------*- C++ -*----------------------------------*\
| =========                 |                                                 |
| \\      /  F ield         | OpenFOAM: The Open Source CFD Toolbox           |
|  \\    /   O peration     | Version:  2412                                  |
|   \\  /    A nd           | Website:  www.openfoam.com                      |
|    \\/     M anipulation  |                                                 |
\*---------------------------------------------------------------------------*/
FoamFile
{
    version     2.0;
    format      ascii;
    arch        "LSB;label=32;scalar=64";
    class       surfaceScalarField;
    location    "1.4";
    object      ddtCorrDdt0(phi);
}
// * * * * * * * * * * * * * * * * * * * * * * * * * * * * * * * * * * * * * //

dimensions      [0 3 -2 0 0 0 0];

oriented        oriented;

internalField   nonuniform List<scalar> 
24930
(
2.9976e-05
1.53848e-05
-3.36984e-05
2.35101e-05
8.97785e-06
1.81835e-05
6.83024e-06
1.36335e-05
5.11573e-06
9.94974e-06
3.7786e-06
6.81211e-06
2.85527e-06
4.29968e-06
1.97131e-06
2.49754e-06
1.07727e-06
1.41818e-06
2.65883e-07
7.41899e-07
-1.87901e-07
2.19915e-07
-3.74537e-07
-2.83292e-07
-4.14894e-07
-8.10715e-07
-4.02827e-07
-1.34926e-06
-3.92856e-07
-1.86423e-06
-4.06423e-07
-2.32724e-06
-4.39139e-07
-2.72608e-06
-4.76532e-07
-3.05303e-06
-5.13939e-07
-3.28961e-06
-5.6075e-07
-3.4102e-06
-6.23675e-07
-3.40495e-06
-6.89119e-07
-3.30059e-06
-7.2583e-07
-3.15796e-06
-7.06735e-07
-3.04671e-06
-6.28909e-07
-3.01443e-06
-5.16147e-07
-3.07102e-06
-4.03128e-07
-3.19436e-06
-3.16301e-07
-3.35178e-06
-2.61407e-07
-3.519e-06
-2.28044e-07
-3.68922e-06
-1.99363e-07
-3.8659e-06
-1.67136e-07
-4.05535e-06
-1.30762e-07
-4.25689e-06
-9.94591e-08
-4.4689e-06
-7.62268e-08
-4.68674e-06
-6.54839e-08
-4.91407e-06
-5.85094e-08
-5.15002e-06
-5.70433e-08
-5.39964e-06
-5.01249e-08
-5.65147e-06
-4.85517e-08
-5.89892e-06
-4.29361e-08
-6.11378e-06
-5.37158e-08
-6.28683e-06
-6.44671e-08
-6.39103e-06
-9.94707e-08
-6.43692e-06
-1.29559e-07
-6.41335e-06
-1.85674e-07
-6.35852e-06
-2.25884e-07
-6.27384e-06
-2.91687e-07
-6.2168e-06
-3.27123e-07
-6.18823e-06
-3.84866e-07
-6.25062e-06
-3.94632e-07
-6.38948e-06
-4.22415e-07
-6.65787e-06
-3.8792e-07
-7.01732e-06
-3.71353e-07
-7.50316e-06
-2.89555e-07
-8.05645e-06
-2.31939e-07
-8.69424e-06
-1.21421e-07
-9.35172e-06
-4.34972e-08
-1.00301e-05
6.12819e-08
-1.06832e-05
1.36456e-07
-1.12978e-05
2.05103e-07
-1.18751e-05
2.72425e-07
-1.23768e-05
2.89354e-07
-1.28785e-05
3.64052e-07
-1.32874e-05
3.19548e-07
-1.37827e-05
4.24837e-07
-1.41729e-05
3.01094e-07
-1.4778e-05
4.6142e-07
-1.52481e-05
2.34579e-07
-1.60824e-05
4.88667e-07
-1.66875e-05
1.49379e-07
-1.77859e-05
5.78127e-07
-1.84301e-05
1.36906e-07
-1.96462e-05
8.51317e-07
-2.00463e-05
3.08867e-07
-2.10814e-05
1.34602e-06
-2.0959e-05
6.1523e-07
-2.17061e-05
1.82175e-06
-2.12045e-05
6.19011e-07
-2.20532e-05
1.59345e-06
-2.19957e-05
-1.87419e-07
-2.36392e-05
3.11861e-07
-2.48502e-05
-1.28544e-06
-2.7239e-05
-7.16224e-07
-2.93223e-05
-7.96964e-07
-3.13267e-05
9.08176e-08
-3.47381e-05
2.72975e-06
-3.33079e-05
-9.55793e-07
-3.27219e-05
8.8606e-07
-3.14594e-05
1.20411e-06
-2.64365e-05
-1.63748e-06
-2.59223e-05
3.18638e-06
-1.839e-05
-4.76896e-06
-1.97506e-05
1.97639e-06
-1.30384e-05
-7.57681e-06
-1.57694e-05
2.74761e-06
1.12266e-05
-2.52773e-05
-4.46809e-05
5.78061e-05
2.90203e-05
-7.3109e-05
-8.42454e-05
0.000113172
0.000185368
-0.000271119
0.000136405
4.75747e-05
-0.000168867
0.00030181
-0.000142335
-4.17148e-05
0.000644481
-0.000787141
0.000609481
5.12959e-05
-0.00161181
0.00232186
0.000932111
-0.00250071
0.000822396
0.00011734
-0.0010867
0.0018643
0.00179608
-0.00292789
-1.63755e-05
0.00184069
0.00118283
-0.00116022
0.00555458
-0.00440222
-0.000398272
0.0059098
-0.00103962
0.000500334
-0.000248532
-0.000701914
-0.00740359
0.00764248
-0.00638636
-0.00155758
-0.00165555
-0.00581151
-0.00290781
3.87975e-05
1.38765e-05
-3.48737e-05
4.17614e-05
9.96115e-06
4.03499e-05
1.00434e-05
3.59416e-05
1.02574e-05
2.94022e-05
1.02238e-05
2.24219e-05
9.09768e-06
1.63649e-05
6.85959e-06
1.19801e-05
4.08279e-06
8.91997e-06
1.80447e-06
6.59644e-06
5.09642e-07
4.51346e-06
3.26826e-09
2.43569e-06
-9.96971e-08
3.33253e-07
-9.6437e-08
-1.7173e-06
-1.46894e-07
-3.61584e-06
-2.98237e-07
-5.29742e-06
-5.1404e-07
-6.74386e-06
-7.34249e-07
-7.94766e-06
-9.42414e-07
-8.87743e-06
-1.171e-06
-9.49379e-06
-1.43808e-06
-9.80474e-06
-1.69243e-06
-9.90283e-06
-1.83259e-06
-9.94176e-06
-1.78331e-06
-1.00666e-05
-1.55541e-06
-1.03477e-05
-1.2423e-06
-1.07626e-05
-9.60091e-07
-1.12291e-05
-7.84267e-07
-1.16639e-05
-7.16627e-07
-1.20237e-05
-7.06778e-07
-1.23158e-05
-6.90048e-07
-1.25736e-05
-6.34341e-07
-1.28331e-05
-5.39035e-07
-1.31114e-05
-4.3623e-07
-1.3417e-05
-3.44518e-07
-1.37485e-05
-2.84552e-07
-1.41153e-05
-2.40241e-07
-1.45175e-05
-2.18142e-07
-1.49639e-05
-1.87975e-07
-1.54373e-05
-1.72073e-07
-1.59297e-05
-1.39279e-07
-1.64019e-05
-1.35651e-07
-1.68486e-05
-1.13835e-07
-1.72384e-05
-1.3537e-07
-1.76008e-05
-1.27089e-07
-1.79282e-05
-1.75403e-07
-1.82874e-05
-1.79904e-07
-1.86802e-05
-2.57987e-07
-1.91926e-05
-2.73372e-07
-1.9815e-05
-3.69983e-07
-2.06329e-05
-3.71291e-07
-2.16082e-05
-4.4933e-07
-2.28086e-05
-3.97448e-07
-2.41609e-05
-4.14456e-07
-2.57064e-05
-2.83941e-07
-2.73497e-05
-2.16163e-07
-2.91051e-05
-1.63155e-08
-3.08834e-05
1.28394e-07
-3.26728e-05
3.4902e-07
-3.44347e-05
5.51529e-07
-3.61265e-05
7.39475e-07
-3.78113e-05
1.0066e-06
-3.93822e-05
1.11665e-06
-4.10505e-05
1.47888e-06
-4.25744e-05
1.44999e-06
-4.43708e-05
1.94505e-06
-4.59667e-05
1.68865e-06
-4.8078e-05
2.37544e-06
-4.98773e-05
1.79377e-06
-5.2497e-05
2.77406e-06
-5.45763e-05
1.76859e-06
-5.78139e-05
3.21788e-06
-6.00417e-05
1.65969e-06
-6.37724e-05
3.8318e-06
-6.56971e-05
1.54879e-06
-6.9519e-05
4.67089e-06
-7.05835e-05
1.5055e-06
-7.42916e-05
5.75853e-06
-7.43821e-05
1.3531e-06
-7.83332e-05
6.48549e-06
-7.83839e-05
8.61976e-07
-8.3297e-05
5.93122e-06
-8.47349e-05
1.71793e-07
-9.02209e-05
3.78292e-06
-9.34928e-05
3.99839e-07
-9.74403e-05
1.12549e-06
-0.000101434
3.54828e-06
-0.000101102
-4.14603e-06
-0.000105099
2.78373e-06
-9.74267e-05
-7.70417e-06
-9.41991e-05
-5.12534e-06
-8.49883e-05
-5.23064e-06
-7.91134e-05
-8.52462e-06
-6.67669e-05
-7.1463e-06
-7.04559e-05
-4.68042e-07
-4.07853e-05
-2.53453e-05
-1.22814e-05
-5.24553e-05
-0.00011264
0.000160282
3.71639e-05
-0.000220924
-0.000217091
0.000368037
0.000581994
-0.0010683
0.000315283
0.00031538
-0.000506058
0.00112336
-0.000353192
-0.000189225
0.00218042
-0.00329962
0.00125224
0.000987908
-0.00445271
0.00803899
0.00314426
-0.0100887
0.00195716
0.001296
-0.00240852
0.00627438
0.00574603
-0.0110483
-8.66328e-05
0.00767699
0.00453275
-0.00577587
0.015165
-0.0150242
-0.00200602
0.0230309
-0.00279792
0.00133158
-0.00183277
-0.00181559
-0.0224035
0.0279824
-0.0192808
-0.00424002
-0.00418
-0.0205276
-0.00671035
3.57023e-05
1.50839e-05
-3.40248e-05
3.93547e-05
9.4535e-06
4.09899e-05
9.8167e-06
3.93993e-05
1.24466e-05
3.46127e-05
1.4915e-05
2.77971e-05
1.52607e-05
2.11784e-05
1.2488e-05
1.60135e-05
8.0483e-06
1.22817e-05
4.18449e-06
9.30302e-06
2.01565e-06
6.42977e-06
1.30474e-06
3.37319e-06
1.30929e-06
1.47647e-07
1.43218e-06
-3.07859e-06
1.35992e-06
-6.10954e-06
1.01482e-06
-8.81309e-06
4.93815e-07
-1.11449e-05
-5.64152e-08
-1.30945e-05
-5.84302e-07
-1.46257e-05
-1.14681e-06
-1.5694e-05
-1.77348e-06
-1.63279e-05
-2.35057e-06
-1.66804e-05
-2.66725e-06
-1.6986e-05
-2.58069e-06
-1.74481e-05
-2.13758e-06
-1.81425e-05
-1.55381e-06
-1.90012e-05
-1.07707e-06
-1.98782e-05
-8.50451e-07
-2.06441e-05
-8.53966e-07
-2.12461e-05
-9.61113e-07
-2.17127e-05
-1.02856e-06
-2.21094e-05
-9.88813e-07
-2.24986e-05
-8.46754e-07
-2.29117e-05
-6.70072e-07
-2.33629e-05
-5.01574e-07
-2.38546e-05
-3.80956e-07
-2.44022e-05
-2.82157e-07
-2.50127e-05
-2.15223e-07
-2.57028e-05
-1.28818e-07
-2.64595e-05
-5.95268e-08
-2.72789e-05
4.53021e-08
-2.81217e-05
1.09974e-07
-2.89858e-05
2.14939e-07
-2.98413e-05
2.57875e-07
-3.07239e-05
3.59448e-07
-3.16278e-05
3.71696e-07
-3.26255e-05
4.56273e-07
-3.3716e-05
4.11334e-07
-3.49865e-05
4.58215e-07
-3.64209e-05
3.5559e-07
-3.81035e-05
3.94288e-07
-3.99902e-05
2.94011e-07
-4.21461e-05
3.94528e-07
-4.4496e-05
3.80827e-07
-4.70754e-05
6.00474e-07
-4.97951e-05
7.33799e-07
-5.26554e-05
1.07209e-06
-5.55868e-05
1.35742e-06
-5.85481e-05
1.74085e-06
-6.15461e-05
2.16227e-06
-6.4486e-05
2.50554e-06
-6.75179e-05
3.09051e-06
-7.04413e-05
3.31144e-06
-7.36124e-05
4.11714e-06
-7.66215e-05
4.08394e-06
-8.01157e-05
5.17083e-06
-8.33381e-05
4.68943e-06
-8.73727e-05
6.16834e-06
-9.09349e-05
5.02886e-06
-9.57429e-05
7.1133e-06
-9.97143e-05
5.09988e-06
-0.000105466
8.16734e-06
-0.000109678
4.97071e-06
-0.000116312
9.58971e-06
-0.000120184
4.7399e-06
-0.000127316
1.1504e-05
-0.000130085
4.50819e-06
-0.000137559
1.40463e-05
-0.000138848
3.91216e-06
-0.000147039
1.6084e-05
-0.000147701
2.56964e-06
-0.000157157
1.55225e-05
-0.000158948
7.51311e-07
-0.000168503
1.06669e-05
-0.000172786
8.83036e-07
-0.000178897
3.0329e-06
-0.000185601
6.535e-06
-0.000183866
-8.43771e-06
-0.00019362
1.15198e-05
-0.000175501
-2.53152e-05
-0.000178782
1.60175e-07
-0.000155705
-2.50905e-05
-0.000158164
-1.98443e-06
-0.00012459
-3.67097e-05
-0.000148203
2.63085e-05
-7.01764e-05
-0.000101373
-6.21176e-05
-5.94684e-05
-0.00018103
0.000280407
2.53393e-05
-0.0004248
-0.000340429
0.000735593
0.00101707
-0.00242549
0.000429744
0.000902539
-0.000863097
0.00240934
-0.000461147
-0.000591031
0.00387279
-0.00763265
0.0015858
0.00328855
-0.00716635
0.0168123
0.00585187
-0.0230819
0.00279795
0.00434917
-0.00341615
0.0125132
0.0102143
-0.0246652
-9.62493e-05
0.017994
0.00878467
-0.0146531
0.0244204
-0.0306587
-0.00465356
0.0520748
-0.00462261
0.00129018
-0.00441398
-0.00214671
-0.03869
0.0620796
-0.0321652
-0.0105382
-0.00631019
-0.0465612
-0.0148167
3.32785e-05
1.88478e-05
-3.45314e-05
3.36867e-05
1.19753e-05
3.37001e-05
1.10767e-05
3.26135e-05
1.41167e-05
2.92559e-05
1.81742e-05
2.4041e-05
1.98752e-05
1.83059e-05
1.73008e-05
1.33983e-05
1.18278e-05
9.73288e-06
6.57709e-06
6.77396e-06
3.57601e-06
3.80454e-06
2.76433e-06
4.4872e-07
3.06706e-06
-3.29121e-06
3.51441e-06
-7.19021e-06
3.57043e-06
-1.09533e-05
3.08473e-06
-1.4348e-05
2.21336e-06
-1.72748e-05
1.23428e-06
-1.97198e-05
2.84592e-07
-2.16565e-05
-7.04539e-07
-2.30377e-05
-1.7872e-06
-2.38937e-05
-2.78176e-06
-2.44154e-05
-3.33134e-06
-2.491e-05
-3.19044e-06
-2.56488e-05
-2.44633e-06
-2.67274e-05
-1.4857e-06
-2.80396e-05
-7.4647e-07
-2.93716e-05
-4.69178e-07
-3.05393e-05
-5.98827e-07
-3.14734e-05
-8.94417e-07
-3.22199e-05
-1.09891e-06
-3.28753e-05
-1.0962e-06
-3.35265e-05
-9.02993e-07
-3.42154e-05
-6.37029e-07
-3.49586e-05
-3.74467e-07
-3.57591e-05
-1.76409e-07
-3.66367e-05
-3.0383e-09
-3.76043e-05
1.33554e-07
-3.86852e-05
3.07435e-07
-3.98688e-05
4.64344e-07
-4.11527e-05
6.78709e-07
-4.24953e-05
8.41273e-07
-4.38952e-05
1.06893e-06
-4.53207e-05
1.21523e-06
-4.68121e-05
1.45338e-06
-4.83637e-05
1.56828e-06
-5.00541e-05
1.78734e-06
-5.18815e-05
1.81611e-06
-5.3938e-05
1.96638e-06
-5.62063e-05
1.89307e-06
-5.87758e-05
2.00813e-06
-6.16036e-05
1.92045e-06
-6.4758e-05
2.10634e-06
-6.81695e-05
2.13873e-06
-7.18699e-05
2.48925e-06
-7.57827e-05
2.74694e-06
-7.9891e-05
3.2709e-06
-8.41518e-05
3.7773e-06
-8.84852e-05
4.37189e-06
-9.29537e-05
5.1224e-06
-9.7393e-05
5.66653e-06
-0.000102058
6.72239e-06
-0.000106628
7.08711e-06
-0.000111633
8.54257e-06
-0.000116456
8.49956e-06
-0.000122022
1.04476e-05
-0.00012723
9.66048e-06
-0.000133609
1.2292e-05
-0.000139323
1.04016e-05
-0.000146795
1.41006e-05
-0.000153076
1.07255e-05
-0.000161883
1.61578e-05
-0.000168517
1.0697e-05
-0.000178669
1.8859e-05
-0.000184941
1.0322e-05
-0.0001961
2.23369e-05
-0.000201031
9.61534e-06
-0.000213125
2.68469e-05
-0.000216051
7.95393e-06
-0.000229519
3.07681e-05
-0.000231181
5.10682e-06
-0.000246402
3.07989e-05
-0.000248858
2.09771e-06
-0.00026376
2.32173e-05
-0.000269366
3.17437e-06
-0.000278601
8.54682e-06
-0.000288598
1.30932e-05
-0.000285278
-1.43427e-05
-0.000300678
2.5597e-05
-0.000272465
-5.34967e-05
-0.000284842
1.40142e-05
-0.000245517
-6.1862e-05
-0.000258873
1.46408e-05
-0.000201271
-9.10202e-05
-0.000247109
7.51087e-05
-0.000115332
-0.000230954
-0.000135641
-3.74434e-05
-0.000265559
0.000411593
3.08275e-06
-0.00069138
-0.000465015
0.00120618
0.00147768
-0.00436704
0.000473605
0.00190607
-0.00122613
0.00410811
-0.000454599
-0.0013615
0.00556916
-0.0141956
0.00166473
0.00720764
-0.00970548
0.0281741
0.00902411
-0.0417851
0.00333732
0.0100359
-0.00426373
0.0201459
0.0151302
-0.0440323
1.64576e-05
0.033117
0.0139018
-0.0285327
0.0335388
-0.0502995
-0.00836003
0.0939229
-0.0066622
1.87057e-05
-0.00811767
-0.000808007
-0.0560415
0.109786
-0.0447015
-0.021618
-0.00799824
-0.0834453
-0.0259968
3.26761e-05
2.34147e-05
-3.47546e-05
3.06694e-05
1.70009e-05
2.81281e-05
1.48187e-05
2.59827e-05
1.68136e-05
2.32087e-05
2.08823e-05
1.9148e-05
2.3388e-05
1.42074e-05
2.13788e-05
9.41018e-06
1.55606e-05
5.44472e-06
9.32475e-06
2.18944e-06
5.47453e-06
-9.74196e-07
4.44227e-06
-4.52279e-06
5.02372e-06
-8.5707e-06
5.89561e-06
-1.29464e-05
6.23708e-06
-1.73161e-05
5.73312e-06
-2.1337e-05
4.5275e-06
-2.48153e-05
3.04431e-06
-2.77232e-05
1.58478e-06
-3.00659e-05
1.11995e-07
-3.18013e-05
-1.47926e-06
-3.29308e-05
-2.97272e-06
-3.36379e-05
-3.84368e-06
-3.42829e-05
-3.68249e-06
-3.52291e-05
-2.57883e-06
-3.6638e-05
-1.1163e-06
-3.8399e-05
5.7108e-09
-4.0233e-05
3.88461e-07
-4.18815e-05
1.12586e-07
-4.32363e-05
-4.30413e-07
-4.435e-05
-8.23646e-07
-4.53502e-05
-8.77936e-07
-4.63533e-05
-6.2371e-07
-4.74145e-05
-2.45318e-07
-4.85521e-05
1.35138e-07
-4.97664e-05
4.30632e-07
-5.10793e-05
6.99165e-07
-5.25074e-05
9.28613e-07
-5.40795e-05
1.21839e-06
-5.57858e-05
1.49248e-06
-5.7625e-05
1.84817e-06
-5.95518e-05
2.13821e-06
-6.15662e-05
2.52094e-06
-6.36347e-05
2.80203e-06
-6.58039e-05
3.21441e-06
-6.80693e-05
3.46988e-06
-7.05193e-05
3.86867e-06
-7.31532e-05
4.01469e-06
-7.60726e-05
4.3176e-06
-7.92617e-05
4.32062e-06
-8.28186e-05
4.56478e-06
-8.67043e-05
4.5441e-06
-9.09924e-05
4.87406e-06
-9.56202e-05
5.01924e-06
-0.000100615
5.5648e-06
-0.000105915
6.03011e-06
-0.00011148
6.80534e-06
-0.000117301
7.63668e-06
-0.000123249
8.50288e-06
-0.000129456
9.71676e-06
-0.00013567
1.05126e-05
-0.000142276
1.22214e-05
-0.000148801
1.27613e-05
-0.000155992
1.51124e-05
-0.000162974
1.50451e-05
-0.000171017
1.81806e-05
-0.000178596
1.69867e-05
-0.000187787
2.12118e-05
-0.000196083
1.83341e-05
-0.000206764
2.42666e-05
-0.000215829
1.90937e-05
-0.000228326
2.77878e-05
-0.000237899
1.9305e-05
-0.000252314
3.23358e-05
-0.000261533
1.88071e-05
-0.000277597
3.80549e-05
-0.000285248
1.7451e-05
-0.000302998
4.53461e-05
-0.000308093
1.42292e-05
-0.000328059
5.20216e-05
-0.000331185
9.15671e-06
-0.000353579
5.32505e-05
-0.000357093
4.44036e-06
-0.000378841
4.24876e-05
-0.0003862
7.0298e-06
-0.000399847
1.82251e-05
-0.000413829
2.33439e-05
-0.000409492
-2.15605e-05
-0.000432601
4.71646e-05
-0.000387014
-9.90638e-05
-0.000417422
4.60161e-05
-0.000358681
-0.000117795
-0.000386415
4.59814e-05
-0.000301757
-0.000172082
-0.000372242
0.000148893
-0.000182002
-0.000418745
-0.000237841
2.05201e-05
-0.000370154
0.000545542
-3.30007e-05
-0.00102662
-0.000596776
0.00177214
0.00194771
-0.00691076
0.000441324
0.00341244
-0.00158438
0.00613505
-0.00032335
-0.00262279
0.00720898
-0.0211915
0.00150231
0.0129303
-0.0120037
0.0416645
0.0125999
-0.0663611
0.00357846
0.0190569
-0.00488177
0.0286334
0.0203887
-0.0692763
0.000286323
0.0532327
0.0198235
-0.0480621
0.0422633
-0.0727444
-0.0130722
0.149201
-0.00903093
-0.00391598
-0.0131059
0.00314928
-0.0740744
0.170572
-0.0565166
-0.0389441
-0.00921908
-0.130985
-0.0402584
3.26033e-05
2.75618e-05
-3.42897e-05
3.03121e-05
2.23566e-05
2.65166e-05
1.9705e-05
2.34441e-05
2.04011e-05
2.07884e-05
2.35184e-05
1.75959e-05
2.61206e-05
1.33042e-05
2.48959e-05
8.42303e-06
1.94494e-05
3.72196e-06
1.286e-05
-4.57817e-07
8.33096e-06
-4.35571e-06
6.87036e-06
-8.40947e-06
7.48362e-06
-1.28764e-05
8.67788e-06
-1.77613e-05
9.38168e-06
-2.28219e-05
9.03133e-06
-2.7654e-05
7.60642e-06
-3.19285e-05
5.60265e-06
-3.55577e-05
3.55809e-06
-3.85837e-05
1.56262e-06
-4.09867e-05
-5.54155e-07
-4.27085e-05
-2.62247e-06
-4.38501e-05
-3.97149e-06
-4.47692e-05
-3.94781e-06
-4.59336e-05
-2.53677e-06
-4.76442e-05
-4.85154e-07
-4.98622e-05
1.17841e-06
-5.22736e-05
1.7898e-06
-5.45248e-05
1.39508e-06
-5.64282e-05
5.53169e-07
-5.80174e-05
-9.96425e-08
-5.94476e-05
-2.53491e-07
-6.08758e-05
5.96154e-08
-6.23817e-05
5.72205e-07
-6.39891e-05
1.0974e-06
-6.56944e-05
1.51218e-06
-6.75193e-05
1.89674e-06
-6.94832e-05
2.24221e-06
-7.1622e-05
2.6781e-06
-7.39277e-05
3.10191e-06
-7.64021e-05
3.63504e-06
-7.89963e-05
4.0864e-06
-8.17136e-05
4.66191e-06
-8.45187e-05
5.11434e-06
-8.74663e-05
5.74507e-06
-9.05534e-05
6.18526e-06
-9.38799e-05
6.81725e-06
-9.74473e-05
7.13258e-06
-0.000101368
7.64791e-06
-0.000105629
7.78517e-06
-0.000110337
8.22352e-06
-0.000115458
8.33741e-06
-0.000121072
8.8836e-06
-0.000127123
9.22369e-06
-0.000133631
1.00418e-05
-0.000140554
1.08157e-05
-0.000147824
1.19201e-05
-0.000155474
1.32021e-05
-0.000163315
1.44113e-05
-0.000171565
1.62515e-05
-0.000179867
1.73584e-05
-0.000188765
1.99404e-05
-0.0001976
2.06903e-05
-0.000207383
2.42345e-05
-0.000216925
2.41223e-05
-0.000227916
2.88422e-05
-0.000238317
2.71191e-05
-0.000250871
3.34756e-05
-0.000262254
2.93293e-05
-0.000276786
3.82485e-05
-0.000289197
3.07611e-05
-0.000306136
4.38038e-05
-0.000319265
3.14076e-05
-0.000338828
5.0903e-05
-0.00035166
3.08644e-05
-0.000373681
5.97129e-05
-0.00038475
2.87213e-05
-0.000409399
7.07903e-05
-0.00041735
2.34254e-05
-0.000445274
8.12899e-05
-0.000450492
1.53187e-05
-0.000481745
8.4519e-05
-0.000486869
8.28054e-06
-0.000517292
7.02649e-05
-0.000526984
1.30273e-05
-0.000546685
3.37744e-05
-0.000565549
3.83189e-05
-0.000561019
-2.90882e-05
-0.000593065
7.76012e-05
-0.000541364
-0.000150778
-0.000587063
9.33839e-05
-0.000500506
-0.000201392
-0.000547958
9.71844e-05
-0.000432516
-0.000283813
-0.000531066
0.000250843
-0.000278215
-0.000668937
-0.000376836
0.000121492
-0.000501786
0.000672268
-9.1973e-05
-0.00143438
-0.000742379
0.00242435
0.00240567
-0.0100578
0.000320009
0.00549787
-0.00191198
0.00836504
-8.64381e-05
-0.00444901
0.0087658
-0.0300371
0.0011378
0.0205753
-0.0140049
0.0567985
0.0164885
-0.0968311
0.00356101
0.0319836
-0.00520869
0.037431
0.0258486
-0.100306
0.000727404
0.0783686
0.0264133
-0.0737369
0.0503189
-0.0966563
-0.0187641
0.218219
-0.0118083
-0.0107516
-0.0195139
0.0107321
-0.092276
0.243127
-0.0672294
-0.0637458
-0.00998075
-0.188507
-0.0576324
3.25085e-05
3.10195e-05
-3.36115e-05
3.09833e-05
2.69467e-05
2.71947e-05
2.45008e-05
2.38566e-05
2.42522e-05
2.1281e-05
2.61345e-05
1.8746e-05
2.82839e-05
1.52494e-05
2.77072e-05
1.05251e-05
2.32483e-05
5.26828e-06
1.69972e-05
8.97789e-08
1.22129e-05
-4.77142e-06
1.02741e-05
-9.51421e-06
1.06317e-05
-1.44322e-05
1.18974e-05
-1.97345e-05
1.29175e-05
-2.54103e-05
1.29075e-05
-3.11288e-05
1.15272e-05
-3.64378e-05
9.14738e-06
-4.11145e-05
6.52871e-06
-4.51981e-05
4.01789e-06
-4.87112e-05
1.42482e-06
-5.153e-05
-1.23315e-06
-5.35873e-05
-3.24043e-06
-5.51213e-05
-3.65156e-06
-5.66541e-05
-2.17504e-06
-5.86863e-05
4.23507e-07
-6.13722e-05
2.77868e-06
-6.44506e-05
3.82081e-06
-6.74783e-05
3.41984e-06
-7.01385e-05
2.26193e-06
-7.23928e-05
1.2608e-06
-7.44044e-05
9.26339e-07
-7.63799e-05
1.26678e-06
-7.84412e-05
1.92384e-06
-8.06293e-05
2.62052e-06
-8.29373e-05
3.1776e-06
-8.53841e-05
3.69798e-06
-8.79904e-05
4.18059e-06
-9.08018e-05
4.79338e-06
-9.3815e-05
5.40259e-06
-9.70369e-05
6.15487e-06
-0.000100416
6.80708e-06
-0.000103961
7.62002e-06
-0.000107633
8.28693e-06
-0.000111498
9.18766e-06
-0.000115554
9.86339e-06
-0.000119913
1.07902e-05
-0.000124578
1.13351e-05
-0.000129677
1.21326e-05
-0.000135197
1.24722e-05
-0.000141256
1.31811e-05
-0.000147827
1.35095e-05
-0.000154991
1.43567e-05
-0.000162708
1.49892e-05
-0.000170985
1.61705e-05
-0.000179805
1.73733e-05
-0.000189068
1.8898e-05
-0.000198858
2.07822e-05
-0.000208915
2.24183e-05
-0.000219567
2.50823e-05
-0.000230325
2.65695e-05
-0.000241928
3.02918e-05
-0.00025349
3.129e-05
-0.000266346
3.63878e-05
-0.000278919
3.62031e-05
-0.000293417
4.299e-05
-0.000307175
4.05906e-05
-0.000323742
4.9734e-05
-0.000338812
4.39854e-05
-0.000357958
5.68074e-05
-0.000374383
4.63935e-05
-0.000396662
6.50989e-05
-0.000414085
4.77392e-05
-0.000439853
7.56166e-05
-0.000457106
4.72989e-05
-0.000486342
8.85718e-05
-0.000501687
4.42894e-05
-0.000534724
0.00010468
-0.000546402
3.64257e-05
-0.000584038
0.00012034
-0.000592182
2.44343e-05
-0.000634325
0.000126632
-0.000641835
1.43748e-05
-0.000683158
0.000108738
-0.000695991
2.19302e-05
-0.000723832
5.72385e-05
-0.00074871
5.91299e-05
-0.000745278
-3.56346e-05
-0.000788209
0.000118873
-0.000725647
-0.000213315
-0.000782207
0.000151731
-0.00067415
-0.000306326
-0.000752546
0.000179538
-0.000600527
-0.000431958
-0.000732694
0.000386545
-0.000412681
-0.000986163
-0.000561922
0.000273278
-0.000668018
0.0007804
-0.000184421
-0.00191572
-0.000913086
0.00315492
0.00282574
-0.0137957
0.00010406
0.00821927
-0.00220476
0.0106729
0.000216886
-0.00687188
0.0101657
-0.0399979
0.000624216
0.0301347
-0.0156749
0.0730948
0.0205764
-0.133074
0.00335712
0.0492015
-0.00518201
0.0459979
0.0313465
-0.136807
0.00132604
0.108405
0.0334566
-0.105864
0.0574126
-0.120619
-0.0252944
0.300856
-0.0151726
-0.0207468
-0.0274229
0.0228521
-0.110061
0.325566
-0.0764818
-0.0970683
-0.0103092
-0.254986
-0.0783125
3.21319e-05
3.39402e-05
-3.28262e-05
3.14461e-05
3.07045e-05
2.82174e-05
2.86901e-05
2.50988e-05
2.78958e-05
2.26564e-05
2.86666e-05
2.05328e-05
3.01035e-05
1.77275e-05
2.98996e-05
1.3529e-05
2.65836e-05
8.18872e-06
2.1257e-05
2.52212e-06
1.6606e-05
-2.98491e-06
1.43339e-05
-8.20554e-06
1.42592e-05
-1.33346e-05
1.5321e-05
-1.86899e-05
1.64894e-05
-2.45363e-05
1.69271e-05
-3.07926e-05
1.59498e-05
-3.70114e-05
1.35604e-05
-4.28047e-05
1.05706e-05
-4.81296e-05
7.6644e-06
-5.30513e-05
4.75727e-06
-5.74224e-05
1.65044e-06
-6.09681e-05
-1.07825e-06
-6.3654e-05
-2.25672e-06
-6.58953e-05
-1.15264e-06
-6.83582e-05
1.72003e-06
-7.15066e-05
4.80275e-06
-7.52927e-05
6.52422e-06
-7.92652e-05
6.35696e-06
-8.29489e-05
4.96461e-06
-8.61558e-05
3.54718e-06
-8.90007e-05
2.91529e-06
-9.17303e-05
3.20584e-06
-9.45274e-05
3.99041e-06
-9.74695e-05
4.87802e-06
-0.000100553
5.60006e-06
-0.000103792
6.27362e-06
-0.000107204
6.9086e-06
-0.000110847
7.72508e-06
-0.000114725
8.55456e-06
-0.000118854
9.57017e-06
-0.000123181
1.04655e-05
-0.000127719
1.15647e-05
-0.000132432
1.24934e-05
-0.000137394
1.37215e-05
-0.000142602
1.46884e-05
-0.000148186
1.59784e-05
-0.000154151
1.68204e-05
-0.000160639
1.79801e-05
-0.00016764
1.8601e-05
-0.000175287
1.96692e-05
-0.000183556
2.0306e-05
-0.000192536
2.15529e-05
-0.0002022
2.25937e-05
-0.000212542
2.42437e-05
-0.00022358
2.60191e-05
-0.000235168
2.80703e-05
-0.000247463
3.07389e-05
-0.000260114
3.28998e-05
-0.000273586
3.66263e-05
-0.000287228
3.85729e-05
-0.00030202
4.37577e-05
-0.000316794
4.50452e-05
-0.000333283
5.21322e-05
-0.000349439
5.18376e-05
-0.000368098
6.12772e-05
-0.000385835
5.8024e-05
-0.000407183
7.07519e-05
-0.000426643
6.30044e-05
-0.000451303
8.08411e-05
-0.00047253
6.67762e-05
-0.000501208
9.27308e-05
-0.0005238
6.91715e-05
-0.000557032
0.00010773
-0.000579672
6.90739e-05
-0.000617622
0.000126129
-0.000638288
6.52025e-05
-0.000681493
0.000148799
-0.00069799
5.43304e-05
-0.000747432
0.000171278
-0.000759593
3.76071e-05
-0.00081505
0.00018202
-0.000826013
2.37876e-05
-0.000880915
0.000160572
-0.00089801
3.48285e-05
-0.000936592
9.1181e-05
-0.000968958
8.72165e-05
-0.000968475
-3.93731e-05
-0.00102464
0.000173323
-0.000951479
-0.00028641
-0.0010268
0.00022896
-0.000899161
-0.00043062
-0.00101484
0.000299389
-0.000813386
-0.00062931
-0.000989148
0.000566003
-0.000595741
-0.00137665
-0.00080522
0.000485471
-0.000878928
0.000856372
-0.000325564
-0.00246661
-0.00112328
0.0039545
0.00317782
-0.0180959
-0.000211909
0.0116086
-0.00245293
0.0129115
0.000545716
-0.00987202
0.0114074
-0.0508521
3.0616e-05
0.0415303
-0.0170117
0.0901387
0.0247326
-0.174885
0.0030601
0.0708728
-0.00477764
0.0538638
0.0367053
-0.178261
0.00203957
0.143089
0.0406782
-0.14448
0.0633185
-0.143268
-0.0326173
0.396715
-0.0192078
-0.0306982
-0.0368311
0.0403359
-0.126762
0.415257
-0.0839632
-0.139592
-0.0102326
-0.329057
-0.102689
3.13757e-05
3.6508e-05
-3.18546e-05
3.1302e-05
3.38365e-05
2.87033e-05
3.22016e-05
2.59844e-05
3.11372e-05
2.36716e-05
3.10962e-05
2.16782e-05
3.18385e-05
1.92592e-05
3.17609e-05
1.56047e-05
2.94259e-05
1.06173e-05
2.51991e-05
5.02045e-06
2.09484e-05
-5.78174e-07
1.84948e-05
-5.85986e-06
1.79522e-05
-1.08537e-05
1.86082e-05
-1.58362e-05
1.96799e-05
-2.12436e-05
2.04909e-05
-2.73294e-05
2.01771e-05
-3.38567e-05
1.82498e-05
-4.03698e-05
1.52942e-05
-4.66907e-05
1.2263e-05
-5.28966e-05
9.32408e-06
-5.88966e-05
6.10932e-06
-6.42837e-05
2.87176e-06
-6.86673e-05
7.86505e-07
-7.21206e-05
1.03846e-06
-7.5269e-05
3.66485e-06
-7.88826e-05
7.25918e-06
-8.33067e-05
9.83607e-06
-8.82711e-05
1.02593e-05
-9.32006e-05
8.88935e-06
-9.76905e-05
7.09533e-06
-0.000101708
6.05775e-06
-0.000105487
6.17587e-06
-0.000109271
7.02621e-06
-0.000113198
8.10418e-06
-0.000117286
9.01087e-06
-0.000121544
9.85408e-06
-0.000125983
1.06501e-05
-0.00013067
1.16896e-05
-0.00013562
1.27696e-05
-0.000140864
1.40924e-05
-0.000146347
1.52733e-05
-0.000152091
1.67099e-05
-0.000158059
1.79504e-05
-0.000164339
1.95683e-05
-0.000170928
2.08865e-05
-0.000177971
2.26139e-05
-0.000185477
2.38274e-05
-0.000193607
2.5439e-05
-0.000202356
2.64319e-05
-0.000211867
2.79605e-05
-0.000222127
2.90145e-05
-0.000233229
3.0774e-05
-0.000245165
3.23593e-05
-0.000257914
3.45992e-05
-0.000271538
3.71181e-05
-0.000285835
3.98176e-05
-0.000301054
4.34893e-05
-0.000316733
4.62871e-05
-0.000333508
5.13636e-05
-0.000350524
5.38581e-05
-0.000369061
6.08932e-05
-0.000387605
6.25116e-05
-0.000408374
7.21136e-05
-0.000428746
7.16573e-05
-0.000452322
8.44598e-05
-0.000474759
8.01368e-05
-0.000501776
9.74185e-05
-0.000526441
8.7199e-05
-0.000557665
0.000111399
-0.000584612
9.28243e-05
-0.000620935
0.000127942
-0.000649724
9.67292e-05
-0.000691903
0.000148724
-0.000721077
9.73345e-05
-0.000769517
0.000174159
-0.000796768
9.27257e-05
-0.000852255
0.000205264
-0.000874926
7.85023e-05
-0.000938663
0.0002366
-0.000956255
5.62585e-05
-0.00102791
0.000253572
-0.00104377
3.79637e-05
-0.00111546
0.000228961
-0.00113836
5.32437e-05
-0.00119089
0.000138777
-0.0012327
0.000124497
-0.00123769
-3.77962e-05
-0.00131001
0.000243873
-0.00122765
-0.000368664
-0.00132716
0.000330548
-0.00118451
-0.000569697
-0.00132373
0.000443072
-0.00107628
-0.000872411
-0.00131667
0.000810271
-0.000838762
-0.00185152
-0.00112227
0.000771847
-0.00114678
0.000883355
-0.000535078
-0.00307564
-0.00139187
0.00481328
0.00342758
-0.0229143
-0.000632073
0.0156678
-0.00267025
0.0149474
0.000836115
-0.0133801
0.0124494
-0.0624653
-0.00057784
0.0545771
-0.0180533
0.107616
0.0287905
-0.222287
0.00276935
0.0968954
-0.00401976
0.0606812
0.0417467
-0.223999
0.00276516
0.182089
0.0477211
-0.189431
0.0678546
-0.16341
-0.0405744
0.50506
-0.0241935
-0.0498765
-0.0476879
0.0636802
-0.141786
0.509161
-0.0894356
-0.191644
-0.00975228
-0.409117
-0.131203
2.98668e-05
3.84829e-05
-2.99182e-05
3.0375e-05
3.63172e-05
2.83711e-05
3.50509e-05
2.60821e-05
3.39244e-05
2.39007e-05
3.33992e-05
2.18805e-05
3.36243e-05
1.957e-05
3.3549e-05
1.62994e-05
3.1919e-05
1.18311e-05
2.86468e-05
6.59325e-06
2.49453e-05
1.31218e-06
2.23494e-05
-3.71114e-06
2.13948e-05
-8.35565e-06
2.15494e-05
-1.27634e-05
2.22934e-05
-1.73546e-05
2.32307e-05
-2.26246e-05
2.35747e-05
-2.86755e-05
2.24416e-05
-3.51689e-05
1.99688e-05
-4.18278e-05
1.71631e-05
-4.86961e-05
1.4511e-05
-5.5804e-05
1.16302e-05
-6.27976e-05
8.3824e-06
-6.90421e-05
5.64829e-06
-7.41292e-05
4.82735e-06
-7.83208e-05
6.62342e-06
-8.24595e-05
1.02165e-05
-8.73318e-05
1.35758e-05
-9.30923e-05
1.49402e-05
-9.92672e-05
1.40444e-05
-0.00010526
1.21331e-05
-0.000110785
1.06966e-05
-0.000115953
1.05233e-05
-0.000121019
1.13335e-05
-0.000126196
1.25679e-05
-0.000131545
1.36716e-05
-0.000137084
1.4706e-05
-0.000142811
1.56718e-05
-0.000148797
1.69485e-05
-0.00015507
1.83036e-05
-0.000161678
1.99765e-05
-0.000168566
2.14844e-05
-0.000175768
2.33107e-05
-0.000183248
2.49155e-05
-0.000191109
2.69915e-05
-0.000199348
2.87262e-05
-0.000208128
3.09713e-05
-0.00021746
3.2637e-05
-0.000227527
3.47999e-05
-0.00023833
3.62683e-05
-0.000250026
3.83708e-05
-0.000262613
3.99669e-05
-0.000276186
4.2365e-05
-0.000290767
4.46535e-05
-0.00030631
4.76201e-05
-0.000322937
5.10846e-05
-0.000340376
5.45697e-05
-0.000358996
5.95062e-05
-0.000378192
6.30666e-05
-0.000398815
6.98389e-05
-0.00041976
7.29771e-05
-0.000442675
8.23291e-05
-0.000465617
8.43162e-05
-0.000491403
9.70679e-05
-0.000516707
9.63774e-05
-0.000546068
0.000113404
-0.000574021
0.000107745
-0.000607734
0.000130758
-0.000638536
0.000117499
-0.000677543
0.000149697
-0.000711267
0.000125594
-0.000756689
0.000172183
-0.000792871
0.000131606
-0.00084574
0.000200338
-0.0008828
0.000133431
-0.000943825
0.000234756
-0.000979179
0.000128377
-0.00104945
0.000276582
-0.00107997
0.00011062
-0.00116095
0.000319265
-0.00118579
8.22095e-05
-0.00127705
0.000344703
-0.00129976
5.88474e-05
-0.00139205
0.000317707
-0.00142289
7.92897e-05
-0.00149327
0.000203907
-0.00154713
0.000173559
-0.00156095
-2.75724e-05
-0.00165314
0.000334218
-0.00156406
-0.000457571
-0.00169371
0.000462436
-0.00153472
-0.000724835
-0.00170472
0.000617839
-0.00142272
-0.00114979
-0.00174118
0.00113278
-0.00115311
-0.00243639
-0.00153382
0.00115559
-0.00148623
0.000838415
-0.00083873
-0.00372028
-0.0017413
0.00571794
0.00353688
-0.0281914
-0.00116346
0.0203676
-0.00288302
0.0166642
0.00101058
-0.0172757
0.0132941
-0.074744
-0.00115171
0.0690429
-0.0188301
0.125292
0.0326892
-0.274043
0.00257046
0.127054
-0.00299548
0.0662754
0.0462975
-0.273262
0.00338586
0.225021
0.0541726
-0.240171
0.0709485
-0.180195