/*--------------------------------*- C++ -*----------------------------------*\
| =========                 |                                                 |
| \\      /  F ield         | OpenFOAM: The Open Source CFD Toolbox           |
|  \\    /   O peration     | Version:  2412                                  |
|   \\  /    A nd           | Website:  www.openfoam.com                      |
|    \\/     M anipulation  |                                                 |
\*---------------------------------------------------------------------------*/
FoamFile
{
    version     2.0;
    format      ascii;
    arch        "LSB;label=32;scalar=64";
    class       surfaceScalarField;
    location    "1.115";
    object      phi_0;
}
// * * * * * * * * * * * * * * * * * * * * * * * * * * * * * * * * * * * * * //

dimensions      [0 3 -1 0 0 0 0];

oriented        oriented;

internalField   nonuniform List<scalar> 
24930
(
0.015795
0.0210112
-0.0367891
0.00650825
0.00928681
0.00300375
0.00350452
0.00168835
0.00131538
0.00109055
0.000597796
0.000740699
0.000349864
0.000504972
0.000235755
0.000335615
0.000169391
0.0002097
0.000125943
0.000114282
9.54482e-05
4.01703e-05
7.41113e-05
-1.7571e-05
5.77012e-05
-6.29736e-05
4.53278e-05
-9.87587e-05
3.57085e-05
-0.000126117
2.73189e-05
-0.000147722
2.16185e-05
-0.000163707
1.60303e-05
-0.000175809
1.21571e-05
-0.000184316
8.59983e-06
-0.0001902
6.10969e-06
-0.00019369
3.84486e-06
-0.000194844
1.55548e-06
-0.000194132
-1.25321e-06
-0.000192192
-3.3826e-06
-0.000189689
-4.12092e-06
-0.000186216
-3.71224e-06
-0.000180898
-4.41387e-06
-0.000176413
-4.42883e-06
-0.000170508
-5.45932e-06
-0.0001647
-5.76614e-06
-0.000158791
-6.00813e-06
-0.00015274
-6.08596e-06
-0.00014656
-6.14536e-06
-0.000140336
-6.25919e-06
-0.000134192
-6.25949e-06
-0.000128164
-6.13162e-06
-0.000122253
-5.91533e-06
-0.000116475
-5.69315e-06
-0.000110847
-5.5596e-06
-0.000105405
-5.45326e-06
-0.00010016
-5.31411e-06
-9.50793e-05
-5.13496e-06
-9.01523e-05
-4.92958e-06
-8.53653e-05
-4.76834e-06
-8.0726e-05
-4.63142e-06
-7.62644e-05
-4.46633e-06
-7.20044e-05
-4.26324e-06
-6.80001e-05
-3.99632e-06
-6.43298e-05
-3.65356e-06
-6.10674e-05
-3.25253e-06
-5.82952e-05
-2.78516e-06
-5.60604e-05
-2.26385e-06
-5.43567e-05
-1.73914e-06
-5.31131e-05
-1.2801e-06
-5.21378e-05
-1.01376e-06
-5.10881e-05
-1.08458e-06
-4.93996e-05
-1.70675e-06
-4.62444e-05
-3.14853e-06
-4.05394e-05
-5.68258e-06
-3.10201e-05
-9.49831e-06
-1.64849e-05
-1.45161e-05
3.84887e-06
-2.03225e-05
2.98031e-05
-2.59394e-05
6.00123e-05
-3.01918e-05
9.15889e-05
-3.15649e-05
0.000120627
-2.90414e-05
0.000143126
-2.25195e-05
0.00015574
-1.26565e-05
0.000156529
-7.97583e-07
0.000143756
1.27151e-05
0.000117541
2.61922e-05
7.61784e-05
4.13664e-05
2.04752e-05
5.57154e-05
-4.75101e-05
6.79848e-05
-0.000118388
7.09033e-05
-0.000177849
5.94537e-05
-0.000205213
2.74741e-05
-0.000199104
-6.35832e-06
-0.00017495
-2.40518e-05
-0.000138949
-3.58839e-05
-9.73375e-05
-4.16002e-05
-5.31363e-05
-4.40401e-05
-1.38624e-05
-3.92519e-05
6.51895e-06
-2.03988e-05
1.08819e-06
5.50774e-06
-4.08569e-05
4.16627e-05
-0.000157882
0.00011697
-0.000371551
0.000213598
-0.000667168
0.000295562
-0.000988018
0.000320855
-0.00129454
0.000306365
-0.00162594
0.000331591
-0.00189045
0.000264781
-0.00045397
-0.0014364
0.0017473
-0.00220127
0.00176643
-1.9057e-05
0.00268718
-0.000920718
0.00374774
-0.0010605
0.001911
0.00183665
0.000792016
0.00111901
0.000354758
0.000437206
-5.83768e-05
0.000413129
-0.000273052
0.000214704
-7.7104e-05
-0.000195992
0.000887121
-0.000964204
0.000921494
-3.43807e-05
0.00100878
-8.73395e-05
0.00176389
-0.000755059
0.00174511
1.84571e-05
0.00033776
0.00140728
-0.00225991
0.00259765
-0.0051283
0.00286832
-0.00705709
0.00192878
-0.00776608
0.000708864
-0.00759843
-0.000167492
-0.00667518
-0.000923172
-0.00361193
-0.00306326
0.000724549
-0.00433647
0.00380682
-0.00308227
-0.00042348
0.0333984
0.029956
-0.0423431
0.022421
0.0202643
0.0141837
0.0117418
0.00912055
0.00637849
0.00614815
0.00357023
0.00432274
0.00217533
0.00310995
0.00144859
0.00225051
0.00102882
0.00161472
0.000761645
0.00113011
0.000579991
0.000754213
0.000450076
0.000458372
0.000353662
0.000223795
0.000279917
3.90502e-05
0.000220272
-0.00011549
0.000181653
-0.000239163
0.000145347
-0.000336422
0.000113684
-0.000413215
8.93389e-05
-0.000472644
6.78591e-05
-0.000518101
5.06234e-05
-0.000551655
3.62327e-05
-0.000574623
2.47614e-05
-0.000588932
1.47644e-05
-0.000596258
5.7584e-06
-0.000598525
-1.96349e-06
-0.000596259
-7.25326e-06
-0.000588585
-1.28274e-05
-0.000579113
-1.56758e-05
-0.000566228
-1.87326e-05
-0.000551627
-2.03357e-05
-0.000535568
-2.21219e-05
-0.000518334
-2.34636e-05
-0.000500178
-2.43966e-05
-0.000481388
-2.50018e-05
-0.000462343
-2.51735e-05
-0.000443244
-2.51846e-05
-0.000424214
-2.50292e-05
-0.000405382
-2.46557e-05
-0.000386843
-2.41713e-05
-0.000368713
-2.35773e-05
-0.000351063
-2.29481e-05
-0.000333857
-2.2364e-05
-0.000317083
-2.17598e-05
-0.000300726
-2.11638e-05
-0.000284807
-2.0555e-05
-0.00026942
-1.98504e-05
-0.000254669
-1.90276e-05
-0.000240754
-1.79416e-05
-0.000227955
-1.6485e-05
-0.000216535
-1.46932e-05
-0.000206766
-1.25596e-05
-0.00019881
-1.02228e-05
-0.000192655
-7.90234e-06
-0.000188048
-5.89753e-06
-0.000184325
-4.74464e-06
-0.000180287
-5.12621e-06
-0.00017399
-8.00844e-06
-0.0001626
-1.45526e-05
-0.000142408
-2.58952e-05
-0.000109144
-4.2769e-05
-5.88069e-05
-6.48565e-05
1.12954e-05
-9.04241e-05
0.000100312
-0.000114946
0.000204058
-0.000133931
0.000312657
-0.000140137
0.00041307
-0.000129431
0.000491644
-0.000101054
0.000537113
-5.80798e-05
0.000542203
-5.89111e-06
0.000501825
5.31526e-05
0.000414794
0.000113239
0.000276817
0.000179335
8.91544e-05
0.000243409
-0.000140419
0.000297533
-0.000379988
0.000310491
-0.000577931
0.000257417
-0.00066619
0.000115678
-0.000640193
-3.22979e-05
-0.000554582
-0.000109738
-0.000433179
-0.000157364
-0.000296744
-0.000178029
-0.000156064
-0.000184878
-3.65926e-05
-0.000158667
1.02396e-05
-6.72677e-05
-3.67964e-05
5.25334e-05
-0.000214635
0.000219705
-0.00064224
0.000544569
-0.0013828
0.000954238
-0.00236569
0.00127843
-0.00339334
0.00134849
-0.00430356
0.00121667
-0.00528764
0.00131545
-0.00605079
0.00102782
-0.00131534
-0.00617195
0.00578839
-0.00930506
0.00604435
-0.000274936
0.00900419
-0.00388066
0.0124444
-0.00450082
0.00703652
0.00724461
0.00303505
0.00512046
0.00118716
0.00228508
-0.000215859
0.00181615
-0.0009422
0.00094101
-1.36324e-05
-0.00112447
0.00307382
-0.00405175
0.00327376
-0.000234261
0.00355623
-0.000369836
0.00561769
-0.00281652
0.00492832
0.000708004
-0.000495534
0.00683117
-0.00941464
0.0115168
-0.0185541
0.0120078
-0.0242865
0.00766116
-0.0258509
0.00227341
-0.0248495
-0.00116911
-0.0214665
-0.00430622
-0.0121218
-0.0124081
0.00175621
-0.0182144
0.0122006
-0.0135267
-0.00249881
0.0431645
0.0322502
-0.0454586
0.0358511
0.0275776
0.0272618
0.0203311
0.0198523
0.0137881
0.0143651
0.00905744
0.0105219
0.00601854
0.00782056
0.00414999
0.0058647
0.00298469
0.00440177
0.00222456
0.00327846
0.00170329
0.00239863
0.00132992
0.00169955
0.00105273
0.00113829
0.000841128
0.000684507
0.00067399
0.000318171
0.00054799
2.29034e-05
0.000440734
-0.000221409
0.000358181
-0.000417569
0.000285579
-0.000574299
0.000224407
-0.00069855
0.000174389
-0.00079533
0.000132352
-0.000868736
9.78724e-05
-0.000922389
6.96179e-05
-0.000959293
4.49553e-05
-0.000982382
2.20327e-05
-0.000994613
4.10672e-06
-0.00099696
-1.06429e-05
-0.000991804
-2.06822e-05
-0.00097983
-3.08616e-05
-0.000962684
-3.74587e-05
-0.00094138
-4.35396e-05
-0.000916732
-4.82069e-05
-0.000889417
-5.1716e-05
-0.00086008
-5.42975e-05
-0.000829471
-5.57498e-05
-0.000798074
-5.66101e-05
-0.000766228
-5.6938e-05
-0.000734263
-5.66695e-05
-0.000702425
-5.60389e-05
-0.000670972
-5.50548e-05
-0.000640083
-5.38728e-05
-0.000609761
-5.27235e-05
-0.000580029
-5.15143e-05
-0.0005509
-5.02998e-05
-0.00052243
-4.90281e-05
-0.000494801
-4.7493e-05
-0.000468225
-4.5626e-05
-0.000443075
-4.31145e-05
-0.000419865
-3.97145e-05
-0.000399079
-3.54953e-05
-0.000381206
-3.04506e-05
-0.000366546
-2.49016e-05
-0.000355077
-1.93887e-05
-0.000346337
-1.46499e-05
-0.000339123
-1.19642e-05
-0.000331265
-1.29877e-05
-0.000319269
-2.00095e-05
-0.000298058
-3.57715e-05
-0.000261068
-6.28903e-05
-0.000200742
-0.000103094
-0.000110062
-0.000155537
1.56955e-05
-0.000216179
0.000175499
-0.00027474
0.000361471
-0.000319902
0.000556561
-0.000335208
0.000737954
-0.000310813
0.000881334
-0.000244417
0.000966542
-0.000143253
0.000980258
-1.96211e-05
0.00091325
0.00012019
0.000762777
0.000263725
0.00052192
0.000420178
0.000191668
0.000573694
-0.000213773
0.00070295
-0.00063755
0.000734284
-0.000985814
0.000605702
-0.00113813
0.000267964
-0.00108725
-8.30144e-05
-0.000932836
-0.00026417
-0.000719755
-0.000370453
-0.000485492
-0.000412244
-0.000248843
-0.000421566
-5.56308e-05
-0.000351812
-2.11823e-06
-0.000120807
-0.000124766
0.000175205
-0.000487477
0.000582447
-0.00128917
0.00134623
-0.0026241
0.0022892
-0.00433852
0.00299279
-0.00606492
0.00307488
-0.00751143
0.00266319
-0.00905248
0.00285642
-0.010241
0.00221638
-0.00223514
-0.0141779
0.00999239
-0.0215326
0.0106584
-0.000940939
0.0156343
-0.00885655
0.021915
-0.0107816
0.0132867
0.015873
0.00599101
0.0124161
0.00220122
0.00607484
-0.000388588
0.00440596
-0.0016614
0.00221381
0.000150437
-0.00293633
0.00557848
-0.00947981
0.00600265
-0.000658402
0.00647452
-0.000841774
0.00951251
-0.00585448
0.00741429
0.00280625
-0.002941
0.0171864
-0.0189967
0.0275725
-0.0343613
0.0273723
-0.0432102
0.01651
-0.0448501
0.00391337
-0.0424601
-0.00355918
-0.0363371
-0.0104293
-0.0208206
-0.0279246
0.00240638
-0.0414414
0.0207327
-0.031853
-0.00675394
0.048983
0.0317577
-0.0484905
0.0457153
0.0308453
0.0394023
0.0266441
0.032024
0.0211664
0.0251477
0.0159337
0.0194705
0.0116958
0.0150425
0.00857804
0.0116414
0.00638576
0.00901371
0.00485226
0.00695686
0.00376013
0.0053248
0.00296198
0.00401453
0.00236299
0.00295278
0.00190282
0.00208646
0.00154024
0.0013784
0.00125606
0.000796857
0.0010224
0.000320643
0.000834533
-6.8686e-05
0.00067494
-0.000389159
0.00054476
-0.000647934
0.000433021
-0.000855197
0.000339613
-0.00101857
0.000261202
-0.00114512
0.000196003
-0.00124031
0.000140237
-0.0013099
9.2091e-05
-0.0013574
5.09913e-05
-0.00138566
1.68782e-05
-0.00139785
-7.16498e-06
-0.00139893
-2.93992e-05
-0.00138875
-4.75532e-05
-0.0013698
-6.26281e-05
-0.00134374
-7.43683e-05
-0.00131194
-8.35148e-05
-0.00127558
-9.06183e-05
-0.00123597
-9.53497e-05
-0.00119404
-9.85837e-05
-0.00115047
-0.000100563
-0.00110592
-0.000101258
-0.00106087
-0.000101106
-0.00101582
-0.000100139
-0.000971112
-9.86178e-05
-0.000926865
-9.701e-05
-0.000883175
-9.5222e-05
-0.000840125
-9.33533e-05
-0.000797843
-9.13146e-05
-0.000756629
-8.87225e-05
-0.000716836
-8.54422e-05
-0.000679042
-8.093e-05
-0.000644035
-7.47403e-05
-0.000612561
-6.69868e-05
-0.000585355
-5.76771e-05
-0.000562878
-4.74005e-05
-0.000545105
-3.71822e-05
-0.000531342
-2.84287e-05
-0.000519785
-2.35297e-05
-0.000507184
-2.55969e-05
-0.000488326
-3.88756e-05
-0.000455656
-6.84496e-05
-0.000399468
-0.000119085
-0.000308647
-0.000193916
-0.000172908
-0.000291277
1.47464e-05
-0.000403828
0.000252949
-0.000512934
0.00053038
-0.000597334
0.00082232
-0.000627131
0.0010955
-0.000583983
0.00131395
-0.000462855
0.00144747
-0.000276746
0.00147586
-4.80156e-05
0.001385
0.000211078
0.00117
0.000478739
0.000821258
0.000768908
0.000339016
0.00105597
-0.000256042
0.00129798
-0.000879942
0.0013582
-0.00139165
0.00111744
-0.00161361
0.000489891
-0.00153531
-0.000161183
-0.00130691
-0.000492578
-0.000997714
-0.000679649
-0.000664274
-0.000745628
-0.000333725
-0.000752146
-7.49902e-05
-0.000610473
-3.74697e-05
-0.000158358
-0.000278356
0.00041612
-0.000879129
0.00118324
-0.0021174
0.00258446
-0.00410741
0.00427924
-0.0065884
0.00547372
-0.00899099
0.00547745
-0.0108859
0.00455815
-0.0128549
0.00482528
-0.0142863
0.00364787
-0.00333822
-0.0251261
0.0140247
-0.0388956
0.0154635
-0.00237973
0.0223139
-0.015707
0.0319924
-0.0204601
0.0207642
0.0271012
0.00984716
0.0233331
0.00349828
0.0124237
-0.000548641
0.00845287
-0.00239726
0.00406241
0.000462868
-0.00579648
0.00838245
-0.0173994
0.00911532
-0.00139126
0.00974614
-0.00147266
0.0133221
-0.00943039
0.00889942
0.00722889
-0.00748895
0.0335748
-0.0311543
0.0512378
-0.0522791
0.0484971
-0.063189
0.0274198
-0.0639632
0.00468757
-0.0597716
-0.00775081
-0.0505948
-0.019606
-0.0291975
-0.049322
0.00274608
-0.0733849
0.0290505
-0.0581575
-0.0136485
0.0528083
0.0306145
-0.0516651
0.0522109
0.0314426
0.048858
0.029997
0.0433487
0.0266757
0.0368611
0.0224215
0.0304425
0.0181145
0.0247035
0.014317
0.0198547
0.0112345
0.015868
0.00883897
0.01262
0.00700813
0.0099735
0.00560851
0.00780865
0.00452784
0.0060293
0.00368211
0.00456027
0.00300919
0.00334524
0.00247107
0.00233729
0.00203041
0.00150187
0.00167007
0.000809188
0.00136771
0.000237587
0.00111637
-0.000233014
0.000903619
-0.000618099
0.000724693
-0.000929149
0.000572076
-0.00117767
0.00044384
-0.00137282
0.000334408
-0.0015227
0.000241422
-0.00163442
0.00016273
-0.00171534
9.72476e-05
-0.00176779
4.57232e-05
-0.00179618
-7.12611e-07
-0.00180784
-3.59157e-05
-0.00180334
-6.72829e-05
-0.00178557
-9.2268e-05
-0.00175703
-0.000112043
-0.00171977
-0.000127842
-0.00167589
-0.000139232
-0.00162699
-0.00014753
-0.00157429
-0.000153311
-0.00151893
-0.000156647
-0.00146177
-0.000158274
-0.00140365
-0.000158287
-0.00134522
-0.000157093
-0.00128677
-0.000155505
-0.00122854
-0.000153467
-0.00117075
-0.000151145
-0.00111365
-0.000148423
-0.00105769
-0.000144693
-0.00100342
-0.000139737
-0.000951656
-0.000132717
-0.000903504
-0.00012291
-0.00086002
-0.000110489
-0.000822225
-9.54943e-05
-0.000790773
-7.88781e-05
-0.000765639
-6.23409e-05
-0.000745874
-4.82144e-05
-0.00072901
-4.04071e-05
-0.000710603
-4.40157e-05
-0.000683566
-6.59224e-05
-0.00063768
-0.000114344
-0.000559863
-0.000196908
-0.000435183
-0.000318593
-0.000249861
-0.000476596
5.82291e-06
-0.000659504
0.000329633
-0.000836733
0.000707399
-0.000975098
0.00110639
-0.0010261
0.0014824
-0.000959984
0.00178701
-0.000767451
0.00197899
-0.000468704
0.00202998
-9.90072e-05
0.00192031
0.000320771
0.00164267
0.000756389
0.00118417
0.00122739
0.000543733
0.00169644
-0.000251735
0.00209342
-0.00108965
0.00219613
-0.00177789
0.00180571
-0.00207706
0.00078904
-0.00197234
-0.000265843
-0.00166874
-0.000796185
-0.00126267
-0.00108571
-0.000832253
-0.00117599
-0.000412952
-0.00117147
-9.98899e-05
-0.000923454
-0.000105664
-0.000152608
-0.000511022
0.000821517
-0.001408
0.00208023
-0.00314682
0.00432324
-0.00584481
0.00697727
-0.00910658
0.00873542
-0.0121302
0.00850108
-0.0143582
0.00678614
-0.0165761
0.00704304
-0.0179586
0.00503048
-0.00482031
-0.0382645
0.0174462
-0.0611621
0.0203358
-0.0052692
0.0287028
-0.0240741
0.0423637
-0.0341209
0.0295351
0.0399299
0.0148053
0.0380629
0.00522162
0.0220073
-0.000641851
0.0143163
-0.0031283
0.00654885
0.000889765
-0.00981459
0.0114405
-0.0279501
0.0126152
-0.00256595
0.0133552
-0.00221275
0.0169279
-0.013003
0.00915426
0.0150025
-0.0143071
0.0570362
-0.0458435
0.0827742
-0.0718278
0.0744813
-0.0833993
0.0389913
-0.0824158
0.00370408
-0.0761596
-0.0140071
-0.0638135
-0.0319522
-0.0366799
-0.0764557
0.00293151
-0.112996
0.0368562
-0.0920822
-0.0236182
0.0559656
0.0296501
-0.0550011
0.0565354
0.0308728
0.0554853
0.0310471
0.0523981
0.029763
0.0476205
0.0271991
0.0418744
0.0238605
0.0358819
0.0203096
0.0301688
0.0169476
0.0250237
0.0139841
0.0205469
0.0114849
0.0167257
0.00942978
0.013495
0.00775846
0.0107749
0.00640217
0.00848766
0.00529638
0.00656644
0.00439225
0.00495239
0.0036445
0.00359826
0.00302431
0.00246301
0.00250308
0.00151431
0.00206517
0.000724217
0.00169375
7.05859e-05
0.00137822
-0.000468735
0.00111107
-0.000908298
0.000882662
-0.00126262
0.000687885
-0.00154412
0.000522595
-0.00176345
0.00038265
-0.00193025
0.000264802
-0.00205213
0.000168365
-0.00213906
8.67116e-05
-0.00219042
1.52596e-05
-0.0022177
-4.02034e-05
-0.00222319
-8.69091e-05
-0.00220986
-0.000125353
-0.0021813
-0.000156356
-0.00214079
-0.000179733
-0.00209091
-0.000197455
-0.00203368
-0.000210593
-0.00197092
-0.000219422
-0.0019041
-0.000225105
-0.00183455
-0.00022787
-0.00176335
-0.000228335
-0.00169111
-0.000227791
-0.00161832
-0.000226275
-0.0015454
-0.000224062
-0.0014728
-0.000221034
-0.00140119
-0.000216316
-0.00133135
-0.000209597
-0.00126441
-0.000199685
-0.00120183
-0.000185505
-0.00114504
-0.000167304
-0.00109538
-0.000145179
-0.00105373
-0.00012055
-0.0010201
-9.60062e-05
-0.000993246
-7.50887e-05
-0.000970001
-6.3669e-05
-0.000944626
-6.94065e-05
-0.000908012
-0.000102548
-0.000847088
-0.000175277
-0.000745187
-0.000298815
-0.000583357
-0.00048042
-0.000344119
-0.00071583
-1.52106e-05
-0.000988403
0.000401527
-0.00125346
0.000888174
-0.00146174
0.00140442
-0.00154232
0.00189486
-0.00145041
0.00229792
-0.00117051
0.00256025
-0.000731005
0.00264429
-0.00018305
0.0025235
0.000441579
0.00218798
0.00109192
0.00162116
0.00179419
0.000819864
0.00249777
-0.000183435
0.00309669
-0.00124817
0.00326088
-0.00212712
0.00268468
-0.00251498
0.00117687
-0.00239047
-0.000390295
-0.00201536
-0.0011713
-0.00151557
-0.0015855
-0.000993095
-0.00169841
-0.000491935
-0.00167265
-0.000137085
-0.00127822
-0.000215823
-7.38871e-05
-0.000835922
0.00144166
-0.00208951
0.00333385
-0.00438971
0.00662339
-0.00783741
0.010425
-0.0118744
0.0127724
-0.0154408
0.0120674
-0.017866
0.00921139
-0.0201194
0.00929629
-0.021064
0.00597515
-0.00684894
-0.0524796
0.0198386
-0.0878497
0.0251846
-0.010615
0.0344886
-0.0333783
0.0525844
-0.0522165
0.0395708
0.0529435
0.0210632
0.0565705
0.00755021
0.0355202
-0.000592662
0.0224592
-0.00381327
0.00976943
0.00140196
-0.0150299
0.0146785
-0.0412267
0.0164984
-0.00438574
0.0172611
-0.00297557
0.0201513
-0.0158931
0.00787445
0.0272793
-0.0236167
0.0885273
-0.0628475
0.122005
-0.0923016
0.103935
-0.102968
0.0496574
-0.0994827
0.000218791
-0.0912261
-0.0222639
-0.0756743
-0.0475039
-0.0429581
-0.109172
0.00300583
-0.15896
0.0437259
-0.132802
-0.0370771
0.0592332
0.0289785
-0.0585615
0.0600209
0.0300851
0.0601785
0.0308895
0.0590212
0.0309203
0.056292
0.0299283
0.052166
0.0279867
0.0470748
0.0254007
0.0415148
0.0225075
0.0359175
0.0195814
0.0305919
0.0168106
0.0257195
0.0143022
0.021378
0.0120999
0.0175757
0.0102044
0.014282
0.00859
0.0114502
0.00722405
0.00902695
0.00606776
0.00696187
0.00508947
0.00520739
0.00425768
0.00372256
0.00355009
0.00247075
0.00294562
0.00142048
0.00242837
0.000544833
0.0019864
-0.000180219
0.00160713
-0.000776087
0.00128324
-0.00126
0.00100655
-0.00164792
0.000771289
-0.00195401
0.000571745
-0.00218954
0.000404424
-0.00236526
0.00026256
-0.00249479
0.000144645
-0.00257811
4.28852e-05
-0.00262625
-3.88512e-05
-0.0026467
-0.000104859
-0.00264147
-0.000161531
-0.00261612
-0.000205073
-0.00257472
-0.000238908
-0.00252042
-0.000264932
-0.00245608
-0.000283776
-0.00238401
-0.000297192
-0.00230626
-0.000305652
-0.00222458
-0.000310068
-0.00214003
-0.000312382
-0.00205351
-0.000312812
-0.00196577
-0.000311802
-0.00187753
-0.000309279
-0.00178979
-0.000304073
-0.00170364
-0.000295779
-0.00162054
-0.000282809
-0.00154241
-0.000263649
-0.00147109
-0.000238643
-0.00140832
-0.000207977
-0.00135525
-0.000173652
-0.00131191
-0.00013938
-0.0012768
-0.000110221
-0.001246
-9.44936e-05
-0.00121239
-0.000103034
-0.00116473
-0.000150221
-0.00108694
-0.000253072
-0.00095861
-0.00042715
-0.000756596
-0.000682431
-0.000459532
-0.00101289
-5.26329e-05
-0.00139529
0.000463455
-0.00176953
0.00106686
-0.00206514
0.00171017
-0.00218561
0.00232681
-0.00206704
0.00284157
-0.00168526
0.0031879
-0.00107731
0.00331788
-0.000313036
0.0031971
0.000562376
0.0028124
0.00147662
0.00214296
0.00246361
0.00118273
0.00345803
-3.00364e-05
0.00430943
-0.0013337
0.00456456
-0.00241864
0.00376965
-0.00291156
0.00166976
-0.00278065
-0.000521156
-0.00234414
-0.00160781
-0.00175848
-0.00217116
-0.00115193
-0.00230489
-0.000577343
-0.00224726
-0.000194004
-0.00166146
-0.000376853
0.000108942
-0.00126416
0.00232901
-0.00293561
0.00500532
-0.00585263
0.00954036
-0.0100766
0.014649
-0.0148599
0.0175557
-0.0188668
0.0160742
-0.0213388
0.0116834
-0.0233856
0.011343
-0.0235121
0.00610168
-0.0094795
-0.0665124
0.0210425
-0.118372
0.0299514
-0.0195239
0.0394209
-0.0428479
0.0622063
-0.0750019
0.050741
0.0644088
0.0288012
0.0785102
0.010702
0.0536194
-0.000292
0.0334532
-0.00440471
0.0138821
0.00195483
-0.0213894
0.0180142
-0.0572862
0.0207513
-0.00712277
0.0214042
-0.00362852
0.0228094
-0.0172983
0.00481929
0.0452694
-0.0354675
0.128814
-0.081771
0.168309
-0.112898
0.135062
-0.121172
0.057931
-0.1148
-0.00615224
-0.104812
-0.0322527
-0.0862535
-0.0660621
-0.0479434
-0.147482
0.00290837
-0.209812
0.0492983
-0.179192
-0.0544546
0.0628675
0.0284896
-0.0623787
0.063514
0.0294387
0.0640385
0.0303649
0.0639533
0.0310056
0.062832
0.0310497
0.0604756
0.0303431
0.0569395
0.0289368
0.0524589
0.0269881
0.0473561
0.0246842
0.0419645
0.0222022
0.0365758
0.019691
0.0314117
0.017264
0.0266173
0.0149988
0.0222693
0.012938
0.018394
0.0110993
0.0149831
0.0094787
0.0120095
0.00806307
0.00943602
0.00683125
0.00722308
0.00576312
0.00533101
0.00483775
0.00372256
0.00403675
0.00236373
0.00334503
0.00122303
0.00274749
0.000272832
0.00223324
-0.000511808
0.00179147
-0.00115328
0.00141345
-0.00167153
0.00109071
-0.00208362
0.000816817
-0.00240515
0.000583997
-0.00264904
0.000388188
-0.00283011
0.000223703
-0.00295516
8.61385e-05
-0.00303085
-2.91054e-05
-0.00307172
-0.00012062
-0.00307937
-0.000197406
-0.00306085
-0.000257485
-0.00302104
-0.00030478
-0.00296431
-0.00034052
-0.00289417
-0.000367345
-0.00281375
-0.000386109
-0.00272573
-0.000398142
-0.00263189
-0.000406264
-0.00253372
-0.000411
-0.00243247
-0.000413052
-0.00232928
-0.000412477
-0.00222558
-0.000407795
-0.00212286
-0.000398532
-0.00202302
-0.000382675
-0.0019285
-0.000358187
-0.00184163
-0.000325537
-0.00176459
-0.000285038
-0.00169889
-0.000239391
-0.00164461
-0.00019369
-0.00160001
-0.000154847
-0.00156039
-0.000134142
-0.0015172
-0.000146242
-0.00145698
-0.00021045
-0.00136056
-0.000349501
-0.00120366
-0.000584063
-0.000958824
-0.000927259
-0.000600659
-0.00137105
-0.000111573
-0.00188437
0.000508982
-0.00239007
0.00123606
-0.00279222
0.00201561
-0.00296513
0.00277023
-0.00282164
0.00341084
-0.00232586
0.00385674
-0.00152318
0.00404846
-0.000504766
0.00394223
0.000668622
0.00352128
0.00189758
0.00275986
0.00322501
0.00164814
0.00456978
0.000223622
0.00573392
-0.00132274
0.00611093
-0.00263089
0.00507783
-0.00325198
0.00229082
-0.00313702
-0.000636075
-0.0026563
-0.00208853
-0.00199736
-0.00283009
-0.00131699
-0.00298519
-0.000677572
-0.0028867
-0.000278041
-0.00206089
-0.000595838
0.000426719
-0.001803
0.00353623
-0.00395181
0.00715415
-0.00753276
0.0131213
-0.0125422
0.0196584
-0.0180216
0.023035
-0.0223536
0.0204062
-0.0247218
0.0140515
-0.0263252
0.0129462
-0.0253782
0.00515484
-0.0125509
-0.0793399
0.0213123
-0.152235
0.034593
-0.0328045
0.043433
-0.051688
0.070955
-0.102524
0.0628305
0.0725334
0.0381629
0.103178
0.0149284
0.076854
0.000363092
0.0480184
-0.00483779
0.019083
0.00250892
-0.0287362
0.0213544
-0.0761316
0.0253562
-0.0111246
0.0256996
-0.00397202
0.0246761
-0.0162747
-0.000280446
0.070226
-0.0498258
0.178359
-0.102061
0.220544
-0.132842
0.165843
-0.137609
0.0626986
-0.128284
-0.0154774
-0.117012
-0.0435249
-0.0958508
-0.0872233
-0.0520059
-0.191327
0.00236326
-0.264181
0.0532626
-0.230092
-0.0761316
0.0668553
0.0280904
-0.0664561
0.0673344
0.0289597
0.0678411
0.0298582
0.0681492
0.0306975
0.0679387
0.0312603
0.0669186
0.0313632
0.0649202
0.0309352
0.0619191
0.0299892
0.0580157
0.0285876
0.053398
0.0268199
0.048301
0.024788
0.0429701
0.0225949
0.037632
0.0203369
0.0324722
0.0180977
0.0276256
0.0159459
0.0231751
0.0139292
0.0191608
0.0120773
0.0155903
0.0104019
0.0124502
0.00890326
0.00971453
0.00757347
0.0073508
0.00640047
0.0053243
0.00537145
0.00359967
0.00447198
0.0021433
0.0036896
0.000923484
0.00301164
-8.92167e-05
0.00242667
-0.000921769
0.00192368
-0.00159817
0.00149324
-0.00214011
0.00112566
-0.002567
0.000814702
-0.00289451
0.000551011
-0.00313953
0.000331163
-0.00331745
0.000148932
-0.00342822
-9.9961e-06
-0.00349634
-0.000129374
-0.00352222
-0.000231675
-0.00351433
-0.000312707
-0.0034792
-0.000375656
-0.00342217
-0.00042439
-0.00334788
-0.000460446
-0.00326036
-0.000485723
-0.00316244
-0.000504225
-0.00305649
-0.000516966
-0.0029445
-0.000525039
-0.00282823
-0.000528761
-0.00270969
-0.000526359
-0.0025909
-0.00051735
-0.00247431
-0.000499288
-0.00236299
-0.000469531
-0.00225984
-0.000428714
-0.00216758
-0.000377321
-0.00208813
-0.000318881
-0.0020217
-0.000260147
-0.00196634
-0.000210237
-0.00191657
-0.000183933
-0.00186242
-0.000200412
-0.00178818
-0.000284714
-0.0016715
-0.000466187
-0.0014842
-0.000771364
-0.00119451
-0.00121695
-0.000772842
-0.00179271
-0.000198594
-0.00245861
0.000530292
-0.00311894
0.00138667
-0.00364859
0.00231067
-0.00388911
0.00321475
-0.0037257
0.00399599
-0.00310709
0.00455875
-0.00208591
0.0048308
-0.000776821
0.00475754
0.000741899
0.00431794
0.0023372
0.00348063
0.00406229
0.00223124
0.00581921
0.000602741
0.00736239
-0.00119051
0.00790419
-0.00274137
0.00662871
-0.00352166
0.00307107
-0.00345507
-0.000702626
-0.00295557
-0.00258804
-0.00224069
-0.00354496
-0.00149824
-0.00372756
-0.000801428
-0.00358354
-0.000395666
-0.00246655
-0.00087674
0.000907778
-0.00245462
0.00511416
-0.00513614
0.00983569
-0.00941733
0.0174024
-0.0152035
0.0254447
-0.0213114
0.0291428
-0.0258517
0.0249464
-0.027983
0.0161828
-0.028932
0.0138951
-0.0268772
0.00310019
-0.0156917
-0.0905256
0.0212839
-0.189211
0.0390288
-0.0505493
0.0467063
-0.0593657
0.0789212
-0.134738
0.0755838
0.0758708
0.0492484
0.129513
0.020506
0.105596
0.00151597
0.0670084
-0.00503396
0.0256329
0.00303483
-0.0368051
0.0246202
-0.097717
0.0302928
-0.0167971
0.0300428
-0.00372215
0.0255238
-0.0117556
-0.00741749
0.103167
-0.0665172
0.237459
-0.123116
0.277143
-0.151577
0.194304
-0.152348
0.0634697
-0.140249
-0.0275766
-0.128083
-0.0556911
-0.105003
-0.110304
-0.0558798
-0.24045
0.00109601
-0.321157
0.0555846
-0.28458
-0.102318
0.071155
0.0277399
-0.0708045
0.0715314
0.0285833
0.0719401
0.0294494
0.0723038
0.0303339
0.0724572
0.0311069
0.0721863
0.0316341
0.0712878
0.0318338
0.0696131
0.0316638
0.067092
0.0311087
0.063735
0.0301769
0.0596251
0.028898
0.0549032
0.0273167
0.049751
0.025489
0.0443693
0.0234794
0.0389557
0.0213595
0.0336834
0.0192015
0.0286878
0.0170729
0.0240609
0.0150287
0.0198552
0.013109
0.0160908
0.011338
0.0127644
0.00972693
0.00985758
0.00827823
0.00734243
0.00698713
0.00518619
0.0058459
0.00335415
0.00484395
0.00181135
0.00396975
0.000524044
0.0032111
-0.000538985
0.00255605
-0.00140708
0.00199338
-0.00210698
0.00151426
-0.00266142
0.00110531
-0.00309138
0.000761168
-0.00341557
0.000473254
-0.00365822
0.000232843
-0.00381603
2.83296e-05
-0.00391776
-0.000130016
-0.00396779
-0.000262707
-0.00397524
-0.00036821
-0.00394819
-0.000451469
-0.00389351
-0.000515171
-0.00381717
-0.000562128
-0.00372353
-0.000597901
-0.00361625
-0.00062426
-0.00349841
-0.000642886
-0.00337263
-0.000654556
-0.00324175
-0.000657263
-0.00310851
-0.000650618
-0.00297604
-0.000631788
-0.00284815
-0.000597438
-0.00272846
-0.00054843
-0.00262034
-0.000485473
-0.0025262
-0.000413054
-0.0024465
-0.000339882
-0.00237913
-0.000277646
-0.00231789
-0.000245196
-0.00225141
-0.000266911
-0.00216175
-0.000374392
-0.00202346
-0.000604487
-0.00180447
-0.00099036
-0.00146867
-0.00155274
-0.000982262
-0.00227911
-0.000321357
-0.0031195
0.000518089
-0.00395836
0.00150775
-0.00463824
0.00258308
-0.00496442
0.00364742
-0.00479003
0.00458443
-0.00404408
0.00528283
-0.00278428
0.00565647
-0.00115047
0.00563832
0.00076007
0.00520244
0.00277309
0.0043112
0.00495351
0.00294488
0.00718556
0.00112687
0.00918036
-0.000912067
0.00994314
-0.00272766
0.00844434
-0.00370721
0.00405058
-0.00373273
-0.000677047
-0.00324832
-0.00307246
-0.00249906
-0.00429422
-0.00170652
-0.00452003
-0.000956924
-0.00433315
-0.000550992
-0.00287237
-0.00121924
0.00157601
-0.00321451
0.00710948
-0.00647774
0.013099
-0.0114831
0.0224077
-0.0180211
0.0319827
-0.0246811
0.0358026
-0.0293277
0.029593
-0.0311256
0.0179806
-0.0312779
0.0140472
-0.0282447
6.72115e-05
-0.0184737
-0.100297
0.0216671
-0.229351
0.0431204
-0.0720025
0.0496399
-0.0658854
0.0865694
-0.171668
0.0887569
0.0736833
0.0621112
0.156159
0.0277271
0.13998
0.00341979
0.0913157
-0.00489472
0.0339473
0.00352794
-0.0452278
0.0277552
-0.121944
0.0355412
-0.024583
0.0343028
-0.00248387
0.025096
-0.00254877
-0.0169214
0.145185
-0.0852667
0.305804
-0.144275
0.336151
-0.168915
0.218944
-0.165961
0.0605152
-0.151208
-0.04233
-0.138272
-0.0686264
-0.114203
-0.134373
-0.0604641
-0.294189
-0.00122152
-0.3804
0.056471
-0.342273
-0.132916
0.0757669
0.0274228
-0.0754498
0.076089
0.0282613
0.0764228
0.0291157
0.0767436
0.0300131
0.0769822
0.0308684
0.0770247
0.0315917
0.076729
0.0321295
0.075949
0.0324439
0.0745569
0.0325007
0.0724607
0.0322731
0.069614
0.0317448
0.0660213
0.0309094
0.0617406
0.0297697
0.0568806
0.0283394
0.0515935
0.0266466
0.0460592
0.0247357
0.0404653
0.0226668
0.0349849
0.0205091
0.0297609
0.0183331
0.0248965
0.0162024
0.0204558
0.0141676
0.0164695
0.0122646
0.0129417
0.0105149
0.00985859
0.00892904
0.0071943
0.00750837
0.00491575
0.00624834
0.00298645
0.00514026
0.00136905
0.00417309
2.62401e-05
0.0033358
-0.00107234
0.00261258
-0.00196271
0.00199562
-0.00267239
0.00147092
-0.00322779
0.00102867
-0.00365025
0.000655291
-0.0039696
0.000347608
-0.00418833
8.86502e-05
-0.00433191
-0.000119146
-0.0044135
-0.000286623
-0.00444162
-0.000423383
-0.00442679
-0.000530056
-0.00437786
-0.000611117
-0.00430143
-0.000674377
-0.00420298
-0.000722724
-0.00408718
-0.000758691
-0.00395792
-0.000783826
-0.0038192
-0.000796009
-0.00367473
-0.000795126
-0.00352848
-0.000778059
-0.00338524
-0.000740703
-0.00324947
-0.000684232
-0.00312532
-0.000609649
-0.00301589
-0.000522526
-0.00292196
-0.000433847
-0.0028414
-0.000358239
-0.00276742
-0.000319199
-0.00268734
-0.000347013
-0.0025811
-0.00048065
-0.00242026
-0.00076534