/*--------------------------------*- C++ -*----------------------------------*\
| =========                 |                                                 |
| \\      /  F ield         | OpenFOAM: The Open Source CFD Toolbox           |
|  \\    /   O peration     | Version:  2412                                  |
|   \\  /    A nd           | Website:  www.openfoam.com                      |
|    \\/     M anipulation  |                                                 |
\*---------------------------------------------------------------------------*/
FoamFile
{
    version     2.0;
    format      ascii;
    arch        "LSB;label=32;scalar=64";
    class       volVectorField;
    location    "0.95";
    object      ddtCorrDdt0(U);
}
// * * * * * * * * * * * * * * * * * * * * * * * * * * * * * * * * * * * * * //

dimensions      [0 1 -2 0 0 0 0];

internalField   nonuniform List<vector> 
12600
(
(2.56539 0 -8.39316)
(-4.444 7.50048e-18 -0.172514)
(3.34927 3.27031e-18 1.15784)
(3.70103 0 0.40939)
(2.5538 -3.99021e-21 -0.173041)
(1.7297 0 -0.574297)
(2.14337 -1.87603e-18 -0.396663)
(3.53024 0 0.16406)
(3.28104 0 -0.17008)
(0.968062 0 -1.26452)
(0.446527 0 -1.13694)
(3.26292 -3.53077e-18 0.490143)
(4.79896 4.06784e-18 0.962829)
(1.83676 0 -0.687502)
(-1.61412 7.78758e-18 -2.1942)
(-1.5263 0 -1.98911)
(4.07072 1.97085e-18 1.52207)
(10.6696 0 5.03964)
(2.10485 -1.032e-17 -1.64745)
(-19.0066 0 -13.1479)
(-17.5251 0 -3.76234)
(49.1282 0 39.6128)
(45.7175 -5.10959e-16 2.82369)
(-98.9414 2.74285e-16 -76.3441)
(-56.0762 -6.85922e-17 22.4163)
(134.553 3.01165e-16 102.478)
(40.5099 0 -21.6065)
(-69.986 0 -48.4908)
(-0.189444 0 10.7563)
(11.1861 1.29601e-16 3.07509)
(-16.8661 1.1906e-16 -12.391)
(-5.58026 0 0.18935)
(9.61862 0 7.05055)
(0.82734 5.86232e-17 -0.551215)
(-7.26642 1.88573e-17 -3.78497)
(-2.02567 0 0.636868)
(2.37816 0 2.52637)
(-0.720547 4.19767e-17 0.149499)
(-3.41793 0 -0.956663)
(-1.76847 -6.25041e-19 0.371244)
(-0.0576281 -4.36859e-18 1.13672)
(-0.747765 1.29109e-17 0.529534)
(-1.65955 0 0.0457015)
(-1.14353 -5.73496e-18 0.400532)
(-0.357483 -4.08866e-18 0.719992)
(-0.357742 -4.9342e-18 0.563796)
(-0.627108 4.16122e-18 0.354723)
(-0.50978 0 0.402378)
(-0.22141 4.77896e-18 0.524752)
(-0.187964 2.4234e-19 0.515385)
(-0.35395 0 0.44243)
(-0.471631 2.74111e-21 0.423658)
(-0.497917 1.93155e-18 0.478374)
(-0.5784 0 0.495019)
(-0.740668 1.12383e-18 0.456114)
(-0.869287 0 0.42036)
(-0.910906 0 0.390987)
(-0.893588 1.26516e-19 0.357774)
(-0.850003 1.36178e-19 0.286961)
(-0.715781 9.09234e-18 0.267117)
(-0.613376 -1.15988e-17 0.149826)
(-0.53818 2.10432e-17 0.0173225)
(-0.480187 0 -0.118155)
(-0.411379 1.91456e-17 -0.193603)
(-0.330863 2.09749e-17 -0.186568)
(-0.186364 -5.05027e-17 -0.086859)
(-0.0419748 3.00461e-17 -0.0739534)
(0.20866 0 0.0379226)
(0.427594 0 0.137374)
(0.443273 0 0.159394)
(0.21125 0 0.349653)
(-0.365056 0 0.751976)
(-1.41351 -1.76002e-17 1.3433)
(-2.68639 2.43777e-17 1.93903)
(-3.84387 0 2.3381)
(-4.6794 0 2.79326)
(-5.36182 -8.0297e-19 2.98309)
(-5.34015 6.2052e-19 2.98337)
(-4.84905 1.05796e-17 3.08197)
(-4.9994 0 3.36089)
(-4.69326 0 2.94055)
(-3.70694 0 2.04799)
(-2.76028 1.51283e-18 1.48812)
(-1.22219 0 0.609336)
(1.20322 0 -0.468867)
(1.38239 -3.99765e-16 -2.5847)
(3.52258 4.45876e-18 -2.6081)
(6.75753 0 -3.78933)
(8.82538 0 -5.09756)
(11.2729 1.40165e-16 -6.44794)
(10.281 -2.60326e-16 -5.79429)
(12.7482 -3.36455e-16 -7.23856)
(7.24234 1.64069e-16 -3.54353)
(-3.77493 -1.80902e-18 1.59186)
(2.48632 2.24355e-17 -2.13925)
(19.314 5.19237e-16 -10.1302)
(-4.3282 0 2.50421)
(6.35703 0 -3.77129)
(-0.971129 0 0.882588)
(-0.856761 1.1497e-15 0.41987)
(1.64548 -1.07896e-16 -0.594632)
(-3.40218 3.53922e-17 1.92315)
(0.962808 1.21683e-16 -0.465854)
(-0.822855 0 0.935663)
(-2.20853 0 1.31077)
(-1.08318 0 0.355997)
(3.5842 1.66373e-16 -2.41905)
(9.77848 0 -5.69754)
(10.9937 -1.39674e-17 -6.15433)
(7.97931 0 -4.22164)
(2.65171 0 -1.32629)
(-4.85315 2.53811e-17 2.82083)
(-8.84386 0 5.24845)
(-10.9902 0 6.43678)
(-15.9558 0 8.86995)
(-11.5893 -2.35448e-16 6.2792)
(-3.8505 0 2.01668)
(-3.67343 -4.46681e-16 1.87335)
(-2.26798 0 1.06736)
(0.902588 7.80619e-19 -0.549296)
(-1.98519 -1.23789e-18 -13.3007)
(0.15274 -4.95795e-18 -0.748835)
(3.864 -1.43949e-18 1.71251)
(3.32747 0 0.791065)
(2.22136 -1.32788e-18 -0.0533009)
(1.70996 2.00889e-18 -0.676813)
(2.71919 1.95699e-18 -0.430151)
(3.98592 -4.77455e-20 0.317083)
(2.74485 0 -0.356965)
(0.394796 0 -2.02886)
(1.36537 0 -1.68491)
(4.87343 0 0.754783)
(4.99762 0 1.20388)
(0.648291 0 -1.47448)
(-2.33589 1.96849e-18 -3.5627)
(-0.230102 0 -3.23532)
(7.85846 -3.39008e-18 2.545)
(11.7746 0 7.79572)
(-5.02777 1.55237e-17 -4.27001)
(-24.1096 5.43099e-17 -21.4661)
(1.43335 0 0.0731991)
(71.6972 -7.91857e-17 74.0879)
(3.45568 2.46925e-16 -13.5977)
(-133.699 -9.70106e-17 -145.419)
(30.886 -4.52777e-16 89.9907)
(184.516 0 205.584)
(-32.9222 -2.12171e-16 -84.7627)
(-87.5375 0 -92.0274)
(20.369 0 24.6435)
(6.12379 0 2.65338)
(-22.9999 -4.70248e-17 -22.1844)
(-0.344821 0 2.19478)
(12.1514 0 12.0403)
(-2.43645 0 -1.79804)
(-9.00561 0 -6.09578)
(-1.00647 0 1.80233)
(2.39333 0 4.37348)
(-2.37566 -4.31904e-17 0.239686)
(-4.77355 0 -1.21489)
(-2.34697 3.73608e-17 1.12788)
(-0.846162 5.39079e-18 2.22465)
(-2.0706 -1.35502e-17 1.15661)
(-3.00904 0 0.520779)
(-2.29374 0 1.17725)
(-1.56212 7.56464e-18 1.67996)
(-1.77382 5.03859e-18 1.44353)
(-2.14682 -2.73782e-18 1.18784)
(-2.03722 0 1.34233)
(-1.80199 -4.09798e-18 1.57377)
(-1.88254 0 1.58197)
(-2.14118 0 1.49957)
(-2.29059 -7.44011e-19 1.50396)
(-2.31448 0 1.59156)
(-2.38082 0 1.59793)
(-2.49399 -1.13568e-18 1.49541)
(-2.50913 0 1.37357)
(-2.36856 0 1.24486)
(-2.11451 6.02121e-19 1.0851)
(-1.767 4.40926e-18 0.88087)
(-1.29857 -2.20982e-18 0.763333)
(-0.938012 0 0.448947)
(-0.59845 -2.12844e-17 0.100221)
(-0.310615 -2.42257e-17 -0.258527)
(-0.0601474 0 -0.492849)
(0.137284 -4.4618e-17 -0.572159)
(0.354334 -9.06805e-19 -0.443465)
(0.524058 0 -0.351202)
(0.785821 3.00743e-17 -0.0515992)
(0.782709 0 0.120041)
(0.306234 0 0.34233)
(-0.838265 0 1.08032)
(-2.90806 0 2.40964)
(-6.08707 3.10084e-17 4.29061)
(-9.70396 -1.80142e-17 6.23948)
(-12.8422 0 7.72977)
(-14.9755 0 8.92714)
(-16.7819 -3.24221e-18 9.70521)
(-16.9848 9.24802e-19 9.74791)
(-16.3396 -4.99004e-20 9.81558)
(-17.2231 0 10.5459)
(-15.9727 0 9.28409)
(-11.8558 0 6.58318)
(-8.2325 3.87543e-18 4.50994)
(-2.9027 1.55755e-16 1.42731)
(4.50322 -2.14663e-16 -2.53656)
(7.19878 3.86252e-16 -7.96312)
(13.6759 7.47775e-18 -8.74254)
(21.4516 -2.52519e-19 -12.4901)
(26.8797 0 -16.0386)
(33.8918 -1.34724e-16 -19.7347)
(30.2263 0 -17.6414)
(36.913 3.22602e-16 -21.5109)
(21.8897 0 -11.1081)
(-4.2198 1.07049e-15 2.45215)
(8.46454 -4.30825e-16 -6.98748)
(61.4692 0 -33.9588)
(-12.6779 0 7.84161)
(19.0005 1.12516e-16 -11.4444)
(-3.11252 1.19879e-16 2.7361)
(-2.89946 -1.10632e-15 1.48741)
(3.19529 1.02472e-16 -1.40838)
(-10.4119 -3.3583e-17 6.03126)
(2.07829 0 -1.24351)
(-4.51624 -3.39635e-16 3.12252)
(-6.83943 0 3.93543)
(-0.485483 0 -0.182471)
(15.1631 -1.6401e-16 -9.33345)
(31.8993 0 -18.7443)
(32.3169 2.76384e-18 -18.5714)
(20.2089 1.49305e-16 -11.302)
(4.18495 0 -1.70586)
(-16.5326 0 10.0026)
(-27.9117 0 16.5134)
(-32.4172 -1.34731e-16 19.2599)
(-45.7246 4.64038e-16 26.391)
(-34.3226 2.21342e-16 19.232)
(-10.8555 0 5.90275)
(-9.0706 4.19546e-16 5.05664)
(-5.71263 0 3.02453)
(3.30232 4.00616e-16 -1.99607)
(1.47538 1.98442e-18 -6.95217)
(2.75442 -6.68649e-19 -1.03207)
(3.51967 -3.08762e-18 0.352454)
(3.43174 0 0.260481)
(2.75636 -1.37875e-18 -0.0392024)
(2.55198 1.22692e-19 -0.266171)
(3.67092 0 0.000980842)
(4.27682 4.53565e-20 0.196206)
(2.50781 0 -0.518852)
(0.915596 2.14814e-18 -1.27608)
(2.70959 0 -0.634113)
(5.24449 0 0.430018)
(3.92396 0 -0.0180191)
(0.0360044 0 -1.40056)
(-1.65523 -6.26742e-18 -2.05761)
(1.4367 0 -1.96715)
(8.74588 0 1.4215)
(7.98382 0 3.81232)
(-8.92245 -4.54359e-18 -3.4659)
(-15.1175 7.39014e-18 -9.14121)
(19.4604 0 6.33224)
(40.1503 -1.08253e-17 30.6968)
(-42.8256 0 -35.5671)
(-67.8333 -1.30139e-16 -73.8009)
(112.854 0 142.685)
(110.032 0 139.848)
(-112.001 2.01224e-16 -150.109)
(-48.122 0 -58.691)
(32.9446 0 27.1692)
(-4.4004 1.3236e-16 -4.95)
(-18.9578 0 -15.5223)
(4.88115 0 6.0803)
(8.47328 0 7.86731)
(-5.54054 0 -3.2755)
(-7.69321 1.27769e-17 -3.32102)
(-0.329166 0 3.04066)
(0.638883 0 3.33139)
(-3.89303 3.55142e-17 0.0562986)
(-5.07746 0 -0.0774134)
(-2.80719 -3.46434e-17 1.8841)
(-2.03034 -2.31498e-18 2.26083)
(-3.30201 1.28284e-17 1.34109)
(-3.89916 0 1.19485)
(-3.22424 0 1.82927)
(-2.74902 -3.20395e-18 2.1433)
(-3.0493 0 1.98884)
(-3.38195 2.58992e-18 1.95601)
(-3.31798 0 2.20816)
(-3.22138 5.30297e-19 2.4303)
(-3.40869 0 2.47341)
(-3.70885 0 2.47762)
(-3.88038 0 2.53932)
(-3.94176 -4.17776e-19 2.59636)
(-4.00882 0 2.55014)
(-4.05316 0 2.39758)
(-3.94116 0 2.19372)
(-3.62196 0 1.94815)
(-3.14416 2.6934e-18 1.64005)
(-2.50178 0 1.3172)
(-1.77809 -2.73609e-18 1.03485)
(-1.13955 0 0.644732)
(-0.571307 9.96976e-18 0.141403)
(-0.0626085 2.28407e-17 -0.298636)
(0.313628 0 -0.626793)
(0.521578 4.7003e-17 -0.822077)
(0.647681 2.46654e-17 -0.813256)
(0.762667 0 -0.625668)
(0.848633 -2.83216e-17 -0.244546)
(0.49884 0 0.0267968)
(-0.467299 0 0.675732)
(-2.54534 0 2.09628)
(-6.10568 0 4.35911)
(-11.3315 -2.52544e-18 7.41493)
(-17.0663 1.69412e-17 10.5696)
(-21.8464 0 13.101)
(-25.0727 0 14.695)
(-27.6744 -1.12178e-18 16.0707)
(-28.0112 1.37253e-17 16.2099)
(-27.2774 -4.78991e-18 16.1113)
(-28.7086 0 16.9874)
(-26.1901 0 14.9508)
(-19.0695 0 10.454)
(-12.944 1.76178e-16 6.80196)
(-3.95608 -5.87684e-18 1.44999)
(8.26355 2.0137e-16 -5.59312)
(14.478 0 -12.9836)
(24.558 6.08094e-17 -15.4445)
(35.9603 2.3681e-19 -21.2056)
(44.0624 0 -26.1251)
(54.3908 0 -31.3016)
(47.5093 2.29818e-16 -27.2169)
(57.0752 0 -32.3455)
(34.7214 -2.11495e-16 -17.3989)
(4.06008 1.13772e-17 -2.11605)
(9.26177 4.61119e-16 -9.38257)
(103.238 -4.26901e-16 -57.6003)
(-18.5855 0 12.304)
(29.8061 -1.05296e-16 -17.5965)
(-4.6095 -1.1217e-16 4.25777)
(-4.65795 1.04111e-15 2.4408)
(3.92599 0 -1.46188)
(-16.9361 -2.93931e-17 9.71107)
(3.07376 0 -1.79083)
(-7.85197 3.17583e-16 5.25409)
(-10.2014 -2.1793e-16 5.73265)
(2.49567 0 -2.7035)
(29.3208 1.53308e-16 -18.3369)
(53.7776 0 -31.6195)
(50.0661 1.26468e-17 -28.0812)
(27.4446 -1.39521e-16 -14.4644)
(1.51727 0 0.456034)
(-28.7836 0 18.2526)
(-45.5598 0 26.8097)
(-50.661 -7.42262e-18 29.8393)
(-70.4859 -4.33449e-16 40.3569)
(-54.7348 -2.03964e-16 29.9984)
(-17.1763 0 8.84326)
(-13.1099 3.90291e-16 7.12225)
(-8.63924 0 4.39454)
(5.62034 4.58399e-19 -3.53121)
(3.37994 -7.67775e-19 -4.40746)
(2.98777 7.89263e-20 -2.2744)
(3.65054 1.15813e-18 -0.921928)
(4.16622 -1.10622e-18 -0.456319)
(3.84884 -1.60569e-18 -0.543952)
(3.95129 -3.87596e-18 -0.5326)
(5.07095 0 -0.114149)
(5.09226 0 -0.109372)
(3.10112 0 -0.819265)
(2.13899 -2.03484e-18 -1.07254)
(4.10214 0 -0.320839)
(5.61969 0 -0.0142922)
(3.7165 0 -0.695443)
(0.497269 0 -1.0136)
(-0.879315 0 -1.25617)
(2.46795 -6.49484e-18 -1.4892)
(9.02273 -5.717e-18 0.328619)
(5.9603 0 1.14709)
(-8.36731 0 -1.12266)
(-8.17983 -5.5822e-17 0.853569)
(17.0951 5.51957e-17 4.59207)
(6.42267 8.14082e-17 -14.2474)
(-38.3045 -2.72356e-17 -27.2517)
(18.1231 1.23199e-16 23.2746)
(91.1878 1.66253e-16 82.9418)
(-22.3232 -1.57415e-16 -5.70737)
(-123.355 0 -142.582)
(15.4148 -1.23498e-16 3.37036)
(31.436 0 20.0826)
(-13.2112 -1.25267e-16 -11.0573)
(-12.6113 0 -7.31391)
(7.73961 0 8.5295)
(3.93762 0 3.66435)
(-7.64159 3.1819e-17 -4.04514)
(-6.26214 -1.20864e-17 -0.773857)
(-0.188718 0 4.02428)
(-1.1415 0 2.62645)
(-5.16475 -3.35821e-17 0.0782806)
(-5.37925 0 0.881577)
(-3.3264 2.44902e-18 2.59077)
(-3.10192 1.37348e-18 2.49991)
(-4.35125 0 1.69186)
(-4.70775 0 1.82435)
(-4.06133 0 2.48773)
(-3.7734 0 2.71688)
(-4.1571 4.34471e-18 2.59688)
(-4.48745 0 2.67914)
(-4.47444 4.32182e-18 2.99621)
(-4.48742 3.15781e-18 3.22743)
(-4.76205 0 3.2918)
(-5.10066 0 3.33945)
(-5.29156 0 3.42342)
(-5.36957 3.94163e-19 3.45119)
(-5.42164 1.5764e-18 3.34568)
(-5.3899 3.74911e-18 3.13055)
(-5.14499 0 2.84748)
(-4.65236 1.9867e-19 2.49126)
(-3.96396 -4.19536e-19 2.05218)
(-3.08655 0 1.58308)
(-2.16973 -4.71098e-18 1.11812)
(-1.30261 0 0.680867)
(-0.55135 -6.5277e-18 0.089434)
(0.131182 -1.85414e-17 -0.352014)
(0.587116 0 -0.676589)
(0.775333 -2.32063e-17 -0.865012)
(0.769221 -2.70383e-17 -0.886377)
(0.693982 0 -0.661909)
(0.474445 0 -0.224827)
(-0.218565 0 0.367423)
(-1.73174 2.57584e-17 1.5508)
(-4.78929 2.34409e-17 3.69174)
(-9.79141 0 6.88215)
(-16.9066 -9.71938e-18 11.0245)
(-24.5317 -1.1781e-17 15.1793)
(-30.7684 0 18.4176)
(-34.7386 0 20.3196)
(-37.9536 3.9141e-18 22.0567)
(-38.3616 1.76796e-19 22.2629)
(-37.4025 0 22.0884)
(-39.0422 0 22.9241)
(-35.2271 0 19.6516)
(-25.2028 0 13.5702)
(-16.7399 -7.48645e-18 8.48406)
(-4.27743 -1.31514e-16 0.95967)
(12.6846 0 -8.91635)
(23.1239 0 -17.1683)
(35.8578 0 -22.7078)
(50.1988 -1.71432e-18 -29.877)
(60.0519 0 -35.826)
(72.3921 -1.38659e-16 -41.9741)
(61.7894 -2.15214e-16 -35.2789)
(72.111 2.89166e-16 -40.7098)
(44.3533 1.97992e-16 -21.9185)
(23.9995 -9.79675e-16 -12.6574)
(0.556218 -4.31548e-16 -6.54851)
(142.797 3.9946e-16 -79.8247)
(-21.3539 0 15.7417)
(38.4296 0 -22.7397)
(-5.29631 -5.54832e-17 5.52493)
(-6.13214 -4.86488e-16 3.10489)
(3.72454 -6.87456e-17 -1.02805)
(-22.8857 2.39172e-19 13.1176)
(3.73201 0 -2.34245)
(-10.8595 0 7.26133)
(-12.2664 2.037e-16 6.6819)
(8.14528 0 -6.80408)
(45.8439 -1.54484e-16 -28.8559)
(74.5031 0 -43.9404)
(62.8416 -9.81654e-18 -34.8414)
(28.8736 0 -14.4104)
(-4.57743 1.20078e-16 5.25943)
(-41.3205 2.33466e-18 26.3324)
(-60.6775 9.47255e-17 35.9361)
(-64.949 -6.0396e-18 38.69)
(-89.6422 0 51.7367)
(-72.4586 1.90478e-16 39.2087)
(-22.8224 8.60899e-17 11.2685)
(-15.9517 -3.64441e-16 8.7245)
(-11.1475 0 5.52407)
(7.58357 1.02793e-18 -4.91015)
(3.65279 0 -3.79019)
(3.27379 -1.59288e-19 -2.79539)
(4.11256 0 -1.53014)
(4.77504 1.04516e-18 -0.965006)
(4.76381 2.74959e-18 -1.03436)
(5.37256 1.84753e-18 -0.914543)
(6.58755 0 -0.48115)
(6.23154 0 -0.533897)
(4.20139 -6.78486e-19 -1.15284)
(3.64557 -2.42752e-18 -1.2622)
(5.4705 1.27425e-18 -0.690988)
(6.38796 -3.34644e-18 -0.589607)
(4.58784 -4.33799e-18 -0.806194)
(1.63737 0 -0.538998)
(-0.106787 0 -1.01364)
(3.31265 1.46342e-17 -1.62069)
(9.42136 1.34874e-18 -0.669353)
(5.37225 0 -0.469514)
(-6.75166 1.20387e-17 0.0758272)
(-4.82551 -3.81557e-17 4.52817)
(13.5742 -5.21838e-17 5.82258)
(1.86713 0 -15.5206)
(-17.619 2.57551e-17 -14.38)
(33.7375 -3.46565e-18 39.686)
(16.7037 -1.57098e-16 -7.24973)
(-85.3766 1.22378e-16 -78.6228)
(-43.5497 0 -34.9663)
(59.5197 8.13091e-17 46.5255)
(17.4009 0 8.54888)
(-17.5961 -4.85129e-17 -13.6807)
(-6.48238 0 -1.09904)
(7.86472 0 8.46575)
(-0.0959764 0 0.640035)
(-8.29231 -3.00519e-17 -3.62443)
(-4.92615 0 1.19856)
(-0.637193 0 4.32465)
(-2.77652 0 2.11574)
(-6.01546 0 0.391422)
(-5.59141 -6.45144e-18 1.7024)
(-3.91184 2.21817e-17 3.07773)
(-4.10217 0 2.71305)
(-5.24859 -7.67051e-18 2.06504)
(-5.41855 0 2.38881)
(-4.84495 0 3.04319)
(-4.72313 0 3.21924)
(-5.1631 -5.14018e-19 3.146)
(-5.49005 0 3.3187)
(-5.5272 -4.07501e-18 3.68252)
(-5.6307 0 3.92502)
(-5.9669 0 4.01076)
(-6.32541 1.65208e-18 4.08795)
(-6.52274 0 4.17569)
(-6.60003 0 4.16609)
(-6.6178 3.80408e-19 3.99893)
(-6.50011 -3.53121e-18 3.71213)
(-6.12412 0 3.34085)
(-5.47228 8.31033e-19 2.86788)
(-4.60077 -1.68624e-18 2.29534)
(-3.5339 0 1.6785)
(-2.45229 1.07437e-18 1.07274)
(-1.42484 0 0.570341)
(-0.51718 6.14082e-18 -0.0234763)
(0.26245 1.74395e-17 -0.451021)
(0.748066 0 -0.712209)
(0.883226 2.14765e-17 -0.801692)
(0.726788 -4.86574e-19 -0.729661)
(0.394174 0 -0.421006)
(-0.174834 0 0.165269)
(-1.28593 0 1.13922)
(-3.43528 -4.6847e-17 2.8687)
(-7.49345 -2.37504e-18 5.73875)
(-13.8515 0 9.83451)
(-22.6653 1.5767e-18 14.9715)
(-31.9449 1.95462e-17 19.9491)
(-39.4482 0 23.6421)
(-43.8906 0 25.7225)
(-47.5514 0 27.5824)
(-47.9793 -5.67976e-19 27.7256)
(-46.662 0 27.4439)
(-48.1416 0 28.1118)
(-42.7412 0 23.684)
(-30.1863 0 15.8713)
(-19.675 -6.8014e-17 9.47514)
(-4.0621 -1.06918e-16 -0.155594)
(17.5168 0 -12.6011)
(32.1744 0 -21.6291)
(47.4041 0 -30.1155)
(64.0168 -3.12684e-18 -38.3488)
(74.9297 0 -44.8295)
(88.3523 1.29805e-16 -51.1158)
(73.3042 0 -41.5285)
(82.1259 -2.70625e-16 -45.8539)
(49.6583 0 -23.8439)
(56.037 4.65106e-16 -29.8914)
(-21.8081 0 3.30431)
(177.453 0 -99.3015)
(-20.9479 0 18.0233)
(45.1613 0 -26.7806)
(-5.15595 5.18789e-17 6.63223)
(-7.27279 0 3.51933)
(2.75505 6.42663e-17 0.00386346)
(-28.2942 2.54661e-17 16.1007)
(4.03888 0 -2.81091)
(-13.4956 0 9.06772)
(-13.0489 0 6.59546)
(16.165 0 -12.8775)
(63.9764 -3.43459e-18 -40.7927)
(93.1784 0 -54.8573)
(70.0872 2.5851e-17 -37.7232)
(25.2365 0 -10.652)
(-13.3621 -2.2867e-16 11.3248)
(-53.0506 -2.18051e-18 34.1668)
(-72.7417 -8.84664e-17 43.1548)
(-75.581 1.21893e-16 45.1655)
(-103.923 0 59.8581)
(-88.0283 0 46.6789)
(-28.0667 -1.71918e-16 13.0574)
(-18.1003 -3.41974e-16 9.60772)
(-13.3882 -8.51843e-17 6.30459)
(8.98351 -1.64109e-16 -6.0808)
(3.88909 0 -3.10423)
(3.83309 1.37231e-18 -2.61933)
(4.47024 0 -1.72523)
(4.8943 0 -1.34447)
(5.13076 0 -1.41906)
(6.28818 0 -1.22454)
(7.66197 0 -0.858631)
(7.13395 -5.10926e-19 -1.02232)
(5.31244 6.40229e-19 -1.55504)
(5.2155 4.76004e-18 -1.57554)
(6.946 -2.37616e-18 -1.21513)
(7.60954 3.15859e-18 -1.16668)
(6.07554 4.09475e-18 -0.868809)
(2.9927 0 -0.314929)
(0.729873 0 -0.969501)
(4.19391 -1.86258e-17 -1.8286)
(9.8135 5.29118e-18 -1.81106)
(5.66412 0 -2.04864)
(-4.21194 -1.13642e-17 0.523726)
(-1.50118 3.60164e-17 6.51211)
(11.8098 0 7.84759)
(1.64069 -5.33236e-18 -9.54097)
(-9.30919 0 -12.9491)
(16.3873 -1.31257e-17 14.3679)
(-12.358 5.66327e-17 -26.5552)
(-54.8788 5.92045e-17 -47.5105)
(28.9517 0 52.2161)
(47.4407 3.33533e-17 36.5181)
(-2.26023 1.18836e-16 -6.01544)
(-19.3945 4.38654e-17 -15.9403)
(-1.10481 -5.26248e-17 3.18245)
(6.24539 0 6.73982)
(-3.0476 3.16846e-17 -1.02127)
(-7.86644 0 -2.43422)
(-3.84109 0 2.5449)
(-1.43171 0 4.1433)
(-4.12013 0 1.80261)
(-6.48471 0 0.881243)
(-5.71591 -5.28765e-19 2.37381)
(-4.49271 -9.02309e-18 3.38361)
(-4.97739 0 2.89086)
(-5.96806 1.28703e-17 2.43626)
(-5.9988 0 2.8912)
(-5.53172 0 3.50825)
(-5.55793 0 3.65105)
(-6.03011 -3.37557e-18 3.63459)
(-6.34896 0 3.88199)
(-6.4337 0 4.2767)
(-6.61347 0 4.52486)
(-6.99258 0 4.62398)
(-7.35781 -2.99941e-18 4.71288)
(-7.55123 0 4.78699)
(-7.61459 0 4.73196)
(-7.58487 -1.75522e-18 4.5007)
(-7.37781 0 4.13529)
(-6.88063 0 3.66536)
(-6.08854 -2.46717e-18 3.07298)
(-5.06508 1.26339e-18 2.36767)
(-3.84585 0 1.61788)
(-2.62842 0 0.909376)
(-1.48632 0 0.360446)
(-0.480471 -2.65652e-18 -0.216476)
(0.338422 0 -0.604479)
(0.801997 0 -0.773185)
(0.837198 -3.8579e-17 -0.726871)
(0.498431 4.82077e-17 -0.494961)
(-0.115079 0 -0.00707064)
(-1.06925 0 0.810621)
(-2.67847 0 2.1759)
(-5.51631 2.12589e-17 4.45871)
(-10.55 -1.84311e-17 8.05889)
(-18.1379 -1.29132e-17 13.022)
(-28.4308 -1.47899e-18 19.0585)
(-39.1216 -7.96104e-18 24.7271)
(-47.7017 8.17931e-18 28.7517)
(-52.4416 0 30.8529)
(-56.3395 0 32.705)
(-56.6877 -5.30712e-18 32.6657)
(-54.8569 0 32.1706)
(-55.7811 0 32.4939)
(-49.2121 0 26.0011)
(-34.0557 0 17.353)
(-21.7785 0 9.84805)
(-3.41671 1.89642e-16 -1.75426)
(22.4722 0 -16.5283)
(40.7857 1.22265e-16 -27.1955)
(58.9982 0 -37.4275)
(77.0323 3.8304e-18 -46.8208)
(88.5265 2.83482e-17 -53.2367)
(102.201 0 -59.0799)
(82.0585 0 -45.9914)
(87.0059 0 -47.9767)
(49.5913 0 -23.3962)
(96.6588 -4.70522e-16 -50.9592)
(-58.7876 0 21.539)
(203.988 0 -114.793)
(-17.7194 0 19.477)
(50.3044 0 -29.9007)
(-4.32869 0 7.5974)
(-8.09622 0 3.76018)
(1.11413 0 1.50878)
(-33.0501 0 18.7015)
(3.95454 -9.82641e-17 -3.14544)
(-15.6069 0 10.6137)
(-12.3771 0 5.40221)
(26.462 0 -20.6746)
(83.0087 1.38038e-16 -53.3874)
(108.604 0 -63.6835)
(70.989 -1.79523e-17 -36.5594)
(17.1963 0 -4.23612)
(-22.6215 -4.82403e-18 18.6906)
(-63.0096 0 41.2096)
(-81.3146 7.77801e-17 48.5045)
(-82.5891 0 49.9597)
(-113.569 0 65.8616)
(-101.988 0 53.1307)
(-32.9789 8.54587e-17 14.3735)
(-19.5589 6.32539e-16 10.2082)
(-15.299 1.5161e-16 6.87554)
(9.79735 -1.55791e-16 -6.97139)
(4.18789 0 -2.51306)
(4.27433 -1.34407e-18 -2.3037)
(4.62839 0 -1.78729)
(4.71852 0 -1.63341)
(5.05875 -1.65303e-18 -1.71489)
(6.55914 -1.43736e-18 -1.47647)
(7.99966 4.28593e-20 -1.1824)
(7.481 1.58841e-18 -1.40408)
(6.13699 0 -1.80072)
(6.56824 5.66949e-20 -1.76975)
(8.2665 1.10583e-18 -1.71381)
(8.95698 0 -1.8135)
(7.77365 0 -1.19381)
(4.45325 0 -0.388537)
(1.78538 0 -0.878748)
(5.18356 -2.15384e-18 -1.80737)
(10.2024 -3.25426e-18 -2.84723)
(6.55022 -1.57897e-17 -3.65389)
(-1.22227 -1.62229e-17 -0.318925)
(1.27683 0 6.40061)
(8.89307 -1.9378e-17 6.9413)
(-0.915342 5.0265e-18 -7.28456)
(-5.08928 0 -10.8497)
(8.21184 4.72132e-18 1.73562)
(-9.34378 -2.47278e-17 -14.129)
(-16.0061 -3.23713e-17 -7.16585)
(33.0859 0 46.9646)
(16.9653 0 6.29869)
(-13.4939 -1.11955e-16 -15.7049)
(-12.8663 -3.07541e-17 -9.92694)
(4.91223 7.93912e-17 7.63237)
(3.753 0 4.59348)
(-4.81101 -5.20425e-17 -1.61501)
(-6.72864 0 -0.834755)
(-3.08362 0 3.35186)
(-2.38758 9.8385e-19 3.6962)
(-5.12694 0 1.64821)
(-6.65158 6.7216e-18 1.43582)
(-5.78407 6.07969e-19 2.89099)
(-5.04631 2.77397e-18 3.53743)
(-5.71354 0 3.02368)
(-6.51516 -1.41961e-18 2.77996)
(-6.45142 0 3.31916)
(-6.11316 0 3.87849)
(-6.26399 0 4.0044)
(-6.7424 0 4.05481)
(-7.04621 0 4.36494)
(-7.17484 2.91573e-18 4.77431)
(-7.41722 0 5.01935)
(-7.82142 0 5.12375)
(-8.18047 1.35805e-18 5.21027)
(-8.36111 0 5.25597)
(-8.40129 9.59775e-19 5.14749)
(-8.31756 1.91496e-18 4.84799)
(-8.02269 -3.89893e-18 4.40025)
(-7.41618 0 3.82972)
(-6.50441 1.41836e-18 3.12265)
(-5.35685 1.9714e-18 2.29789)
(-4.01692 0 1.4405)
(-2.69505 0 0.660235)
(-1.48028 0 0.082535)
(-0.425303 2.4943e-18 -0.460415)
(0.390653 0 -0.783654)
(0.796089 0 -0.836165)
(0.69987 1.72742e-17 -0.627028)
(0.152672 -4.38167e-17 -0.196302)
(-0.767904 0 0.522022)
(-2.13333 0 1.62869)
(-4.28498 0 3.40016)
(-7.81999 0 6.23774)
(-13.7617 -1.13497e-17 10.5469)
(-22.4204 1.21073e-17 16.3145)
(-33.9613 0 23.1395)
(-45.8477 0 29.3749)
(-55.3908 -7.66567e-18 33.6347)
(-60.324 0 35.6516)
(-64.2852 -1.84583e-19 37.3771)
(-64.4333 -2.76389e-18 37.0252)
(-61.9052 0 36.1699)
(-62.0293 0 35.9195)
(-53.5944 0 28.3737)
(-36.6935 0 18.0937)
(-23.1466 0 9.64428)
(-2.53519 -8.37885e-17 -3.76096)
(27.3035 0 -20.5797)
(49.1563 -2.14989e-16 -32.8818)
(70.2462 0 -44.6035)
(89.1596 1.07601e-17 -54.9605)
(100.852 4.63869e-18 -60.9025)
(114.17 0 -65.6904)
(87.9962 1.44172e-16 -48.5266)
(87.1468 0 -47.0672)
(44.3442 0 -20.896)
(135.26 9.01853e-16 -69.6969)
(-106.415 0 45.9521)
(219.733 0 -125.37)
(-12.4843 0 20.416)
(54.228 0 -32.242)
(-2.9795 0 8.50249)
(-8.68864 0 3.89423)
(-0.993962 0 3.42896)
(-37.1028 0 20.8399)
(3.42051 9.1803e-17 -3.31635)
(-17.0501 0 11.7306)
(-10.0409 0 2.99045)
(38.6397 0 -30.1478)
(101.897 -1.29889e-16 -66.025)
(119.709 1.27369e-16 -69.5219)
(65.4565 4.38916e-17 -31.06)
(6.83344 7.58049e-17 3.88706)
(-31.496 -5.05299e-18 25.0877)
(-71.0747 3.30648e-17 46.9234)
(-86.738 -1.43485e-16 51.8562)
(-87.0365 0 53.0915)
(-119.932 -3.66323e-16 69.8508)
(-115.224 1.55665e-16 58.9266)
(-37.7196 0 15.2725)
(-20.6587 -2.92446e-16 10.3407)
(-16.9054 -6.72907e-17 7.16321)
(10.0623 1.45419e-16 -7.63954)
(4.40481 0 -2.19639)
(4.54104 6.20213e-19 -2.07656)
(4.69895 0 -1.79975)
(4.48951 0 -1.82055)
(4.85124 1.55652e-18 -1.90244)
(6.45815 1.35315e-18 -1.65057)
(7.77414 -4.03291e-20 -1.41981)
(7.27984 -1.59281e-18 -1.62233)
(6.44144 0 -1.84419)
(7.26894 2.03026e-18 -1.82858)
(8.96957 -2.8441e-18 -2.14489)
(10.0245 0 -2.47532)
(9.419 -5.13341e-18 -1.73648)
(6.02419 0 -0.670645)
(3.14518 3.68686e-18 -0.64678)
(6.25864 1.14399e-17 -1.42944)
(10.5953 1.76714e-18 -3.44456)
(7.74326 1.48631e-17 -5.05852)
(1.71136 2.9676e-17 -2.14399)
(3.03468 0 4.10183)
(5.82332 1.824e-17 4.41337)
(-1.86244 0 -5.24212)
(0.956952 0 -4.81345)
(9.12992 1.00909e-17 0.880887)
(-1.83922 -5.12006e-17 -4.13625)
(-0.387507 0 5.58423)
(16.7094 0 20.192)
(1.12152 0 -5.96562)
(-11.4119 1.729e-17 -12.6177)
(-1.89711 3.06327e-17 1.09961)
(5.90257 -2.03321e-17 7.61631)
(0.68045 -1.65337e-17 2.74663)
(-5.42983 3.39699e-17 -1.36657)
(-5.27557 3.23835e-18 0.769985)
(-2.72414 -5.35076e-18 3.64373)
(-3.32342 2.31448e-18 3.16014)
(-5.74644 0 1.66512)
(-6.58564 -6.32168e-18 1.97967)
(-5.8268 5.28066e-18 3.23996)
(-5.54496 -2.60845e-18 3.57145)
(-6.28766 0 3.12435)
(-6.89294 -3.65793e-18 3.08421)
(-6.78214 1.53169e-18 3.6616)
(-6.58245 1.89239e-18 4.15193)
(-6.82802 -2.07491e-19 4.27759)
(-7.28855 0 4.40067)
(-7.57219 0 4.76015)
(-7.73995 -4.23818e-19 5.16918)
(-8.0302 0 5.4037)
(-8.44223 0 5.50716)
(-8.78351 9.67672e-19 5.58076)
(-8.94444 -4.91574e-19 5.58685)
(-8.95653 -9.0139e-19 5.41764)
(-8.81775 -4.65041e-20 5.04616)
(-8.44158 2.03126e-19 4.51468)
(-7.74096 0 3.84571)
(-6.73162 0 3.03334)
(-5.48676 -3.54612e-18 2.10745)
(-4.05519 0 1.16952)
(-2.6582 0 0.345051)
(-1.40429 1.34765e-18 -0.240834)
(-0.338779 0 -0.737993)
(0.446467 0 -0.978596)
(0.773278 8.47833e-18 -0.900738)
(0.530579 -1.26239e-17 -0.513873)
(-0.238054 3.89717e-17 0.134324)
(-1.47904 0 1.10926)
(-3.26707 -1.85366e-17 2.5331)
(-5.9669 0 4.72114)
(-10.1619 0 8.10616)
(-16.902 1.84021e-17 13.0827)
(-26.4446 0 19.5728)
(-39.0006 0 27.0693)
(-51.9015 0 33.7658)
(-62.3726 0 38.2001)
(-67.4896 0 40.061)
(-71.3773 1.72888e-19 41.5778)
(-71.193 1.26474e-18 40.7851)
(-67.7523 -3.26712e-18 39.4144)
(-66.6433 -2.0651e-17 38.3473)
(-56.1921 0 30.3071)
(-38.5568 0 17.8769)
(-23.9176 0 8.93993)
(-1.59521 0 -6.06779)
(31.6206 0 -24.8813)
(56.9123 1.1725e-17 -38.7292)
(80.8052 0 -51.7517)
(100.4 -9.53946e-18 -62.4572)
(111.854 2.19873e-18 -67.8191)
(124.263 0 -71.1096)
(90.918 -1.34799e-16 -48.9086)
(83.1834 0 -43.4355)
(35.9397 -1.58666e-16 -17.6436)
(156.494 2.36242e-17 -77.0323)
(-154.151 0 70.9159)
(223.691 0 -130.73)
(-6.11846 0 21.1872)
(57.2464 0 -33.923)
(-1.29326 -5.64032e-17 9.42049)
(-9.13106 0 4.07358)
(-3.34561 0 5.58789)
(-40.3681 2.51598e-17 22.4895)
(2.3788 0 -3.29932)
(-17.6137 2.02966e-16 12.282)
(-5.98262 -1.16004e-16 -1.04318)
(52.3811 0 -40.9711)
(119.634 2.42263e-16 -78.0168)
(125.495 2.04774e-17 -71.6897)
(53.9258 -9.49944e-17 -21.5255)
(-3.65213 -7.07801e-17 12.1521)
(-38.7354 1.0379e-16 29.8098)
(-76.928 -3.08705e-17 51.6647)
(-89.6643 6.61568e-17 53.8298)
(-89.878 -1.1224e-16 55.5752)
(-124.207 3.41971e-16 73.1309)
(-128.294 -1.45311e-16 64.5241)
(-42.4882 -7.47442e-17 15.8214)
(-21.4304 2.47109e-16 10.2172)
(-18.1955 0 7.22842)
(9.9078 0 -8.12349)
(4.55445 0 -2.02745)
(4.71131 4.56038e-19 -1.92361)
(4.71529 0 -1.78897)
(4.33106 0 -1.88803)
(4.73875 0 -1.94913)
(6.29112 0 -1.73539)
(7.32628 -1.4304e-19 -1.59631)
(6.78952 5.18058e-19 -1.74684)
(6.25489 6.37305e-19 -1.78922)
(7.13601 -4.01693e-18 -1.8147)
(8.79092 2.6736e-18 -2.4392)
(10.486 0 -2.99075)
(10.6996 4.82566e-18 -2.33208)
(7.51992 0 -1.12139)
(4.65758 -3.46597e-18 -0.417835)
(7.27913 -1.0782e-17 -0.802354)
(10.9267 0 -3.38305)
(9.06431 0 -5.80008)
(4.65023 -1.35434e-17 -3.92052)
(4.85171 0 1.35831)
(4.64815 0 2.31607)
(0.233483 -1.10523e-17 -2.38983)
(6.73207 0 0.526242)
(10.2055 0 0.748281)
(0.762768 2.27876e-17 -3.00433)
(0.866331 0 2.42634)
(4.88785 0 3.21157)
(-2.51365 0 -7.23077)
(-4.43289 -1.4131e-17 -5.27693)
(2.83742 0 4.41584)
(3.36158 -1.0535e-17 3.70853)
(-1.64108 -1.19539e-19 0.410788)
(-5.23478 -1.22985e-17 -0.918368)
(-3.86718 -3.04308e-18 2.02021)
(-2.69468 6.7767e-18 3.5148)
(-4.05477 -3.0445e-18 2.68249)
(-5.96703 0 1.8289)
(-6.35708 0 2.44161)
(-5.85451 2.09503e-18 3.41598)
(-5.94906 1.16617e-18 3.51917)
(-6.6772 0 3.20085)
(-7.10463 0 3.3343)
(-6.99261 -1.95612e-19 3.9078)
(-6.92747 -1.77722e-18 4.32877)
(-7.23368 1.94848e-19 4.47112)
(-7.65699 9.23901e-19 4.66699)
(-7.91871 0 5.0606)
(-8.12018 -4.49779e-19 5.45678)
(-8.44313 0 5.67593)
(-8.84787 0 5.77396)
(-9.16317 -9.08232e-19 5.82646)
(-9.30118 4.61332e-19 5.78432)
(-9.28448 0 5.54925)
(-9.09424 -1.6437e-18 5.10427)
(-8.64742 3.30837e-19 4.49057)
(-7.87045 0 3.72942)
(-6.78656 0 2.82463)
(-5.47036 2.78661e-18 1.81792)
(-3.97399 0 0.824868)
(-2.52821 0 -0.0219251)
(-1.25971 -2.35931e-18 -0.596333)
(-0.208925 0 -1.03874)
(0.532665 0 -1.18689)
(0.777011 -1.47213e-17 -0.973446)
(0.390979 1.18315e-17 -0.40434)
(-0.59305 -1.77083e-17 0.467369)
(-2.14724 0 1.70848)
(-4.34493 1.73672e-17 3.4575)
(-7.563 0 6.05518)
(-12.3408 -9.24898e-18 9.95995)
(-19.7336 -7.27366e-18 15.5406)
(-29.9555 0 22.6598)
(-43.303 0 30.7179)
(-57.0768 -4.97808e-18 37.7985)
(-68.5174 6.45649e-18 42.3861)
(-73.9304 0 44.012)
(-77.6388 0 45.3043)
(-76.9972 1.34386e-18 43.9385)
(-72.4171 3.05737e-18 41.8814)
(-69.8661 3.87323e-17 39.7961)
(-58.3182 0 29.7781)
(-39.0698 0 17.6457)
(-24.2121 0 7.84114)
(-0.801244 0 -8.58404)
(35.5858 0 -28.713)
(63.9651 1.02029e-17 -44.427)
(90.4338 0 -58.7631)
(110.599 0 -69.266)
(121.51 -5.29038e-19 -73.948)
(132.678 0 -75.0382)
(90.5226 -1.00651e-16 -46.8562)
(76.1775 0 -37.6725)
(29.2493 1.48285e-16 -15.872)
(148.112 2.42699e-17 -66.139)
(-187.816 0 87.9447)
(216.836 0 -132.059)
(0.601474 0 21.8449)
(59.6072 0 -34.9955)
(0.584096 -2.7486e-17 10.4285)
(-9.63934 2.89002e-16 4.25425)
(-5.5983 -1.40395e-17 7.89566)
(-42.7949 -2.34991e-17 23.5561)
(0.784685 0 -3.08876)
(-17.1288 -1.89546e-16 12.0794)
(0.233334 1.08329e-16 -6.27168)
(67.101 0 -52.7964)
(135.135 -1.1295e-16 -88.5666)
(125.271 -2.82788e-16 -69.593)
(37.6173 5.04269e-17 -8.73745)
(-11.389 0 18.7549)
(-41.5363 -1.06636e-16 36.9062)
(-81.6923 0 55.5444)
(-91.235 0 54.8982)
(-92.473 1.04774e-16 57.8699)
(-128.069 0 76.3097)
(-141.02 0 69.7968)
(-47.7497 6.97659e-17 16.1525)
(-21.9654 -2.30642e-16 9.84295)
(-19.2401 -3.41428e-17 7.08649)
(9.44571 -1.29002e-16 -8.50042)
(4.65581 0 -1.89429)
(4.80445 -4.28607e-19 -1.81633)
(4.68724 -6.25699e-19 -1.7632)
(4.26361 0 -1.85888)
(4.75407 0 -1.88876)
(6.16084 0 -1.76884)
(6.88494 1.34412e-19 -1.75946)
(6.31984 0 -1.85353)
(5.86857 -5.98691e-19 -1.72862)
(6.41969 0 -1.76524)
(7.87142 0 -2.54183)
(10.2171 2.43161e-18 -3.26419)
(11.2689 0 -2.90218)
(8.55849 -7.98735e-18 -1.77179)
(5.95115 1.58353e-18 -0.44445)
(8.00744 1.01257e-17 -0.218194)
(11.1089 0 -2.7187)
(10.4652 -8.27022e-19 -5.526)
(7.77594 0 -4.76956)