/*--------------------------------*- C++ -*----------------------------------*\
| =========                 |                                                 |
| \\      /  F ield         | OpenFOAM: The Open Source CFD Toolbox           |
|  \\    /   O peration     | Version:  2412                                  |
|   \\  /    A nd           | Website:  www.openfoam.com                      |
|    \\/     M anipulation  |                                                 |
\*---------------------------------------------------------------------------*/
FoamFile
{
    version     2.0;
    format      ascii;
    arch        "LSB;label=32;scalar=64";
    class       surfaceScalarField;
    location    "0.95";
    object      phi_0;
}
// * * * * * * * * * * * * * * * * * * * * * * * * * * * * * * * * * * * * * //

dimensions      [0 3 -1 0 0 0 0];

oriented        oriented;

internalField   nonuniform List<scalar> 
24930
(
0.0154878
0.0208043
-0.0362784
0.00634516
0.00914266
0.00291107
0.00343409
0.00162691
0.00128415
0.00104362
0.000583275
0.000702564
0.000341048
0.000473067
0.000229489
0.000308536
0.000164523
0.000186565
0.000121964
9.43953e-05
9.21658e-05
2.30118e-05
7.1383e-05
-3.2242e-05
5.5255e-05
-7.55401e-05
4.32981e-05
-0.000109463
3.39204e-05
-0.000134666
2.52032e-05
-0.000154825
2.01754e-05
-0.000169643
1.48376e-05
-0.000180524
1.08651e-05
-0.000187974
7.4289e-06
-0.000192529
4.60784e-06
-0.000194848
2.40592e-06
-0.000195309
2.97126e-07
-0.000194111
-1.29525e-06
-0.000191647
-2.03321e-06
-0.000188285
-3.37946e-06
-0.000183912
-5.0229e-06
-0.000179002
-4.83466e-06
-0.000173616
-5.03011e-06
-0.000167861
-5.90279e-06
-0.0001618
-6.01137e-06
-0.000155612
-6.09458e-06
-0.000149331
-6.32829e-06
-0.000143008
-6.36325e-06
-0.000136711
-6.25827e-06
-0.000130497
-6.18423e-06
-0.000124402
-6.11307e-06
-0.000118436
-5.98037e-06
-0.000112656
-5.76734e-06
-0.000107073
-5.5723e-06
-0.000101676
-5.40382e-06
-9.64508e-05
-5.23347e-06
-9.13814e-05
-5.06885e-06
-8.6444e-05
-4.93569e-06
-8.16148e-05
-4.8339e-06
-7.68857e-05
-4.73574e-06
-7.22701e-05
-4.61895e-06
-6.78196e-05
-4.45212e-06
-6.35984e-05
-4.22414e-06
-5.96802e-05
-3.92229e-06
-5.61448e-05
-3.53824e-06
-5.30319e-05
-3.1143e-06
-5.03416e-05
-2.69125e-06
-4.80007e-05
-2.34232e-06
-4.58356e-05
-2.16649e-06
-4.35627e-05
-2.2734e-06
-4.07496e-05
-2.81351e-06
-3.6827e-05
-3.92294e-06
-3.11191e-05
-5.70823e-06
-2.29823e-05
-8.1371e-06
-1.19875e-05
-1.09972e-05
1.8439e-06
-1.38331e-05
1.74868e-05
-1.56431e-05
3.33907e-05
-1.59023e-05
4.75666e-05
-1.41744e-05
5.83243e-05
-1.07582e-05
6.52612e-05
-6.94147e-06
6.93001e-05
-4.04402e-06
7.30286e-05
-3.73748e-06
7.97337e-05
-6.7158e-06
9.39674e-05
-1.42409e-05
0.000119588
-2.56266e-05
0.000159414
-3.98348e-05
0.000208661
-4.92592e-05
0.00025389
-4.52391e-05
0.000270018
-1.6137e-05
0.000234419
3.55892e-05
0.000157814
7.66029e-05
7.34514e-05
8.43648e-05
1.4125e-05
5.9327e-05
2.4861e-06
1.16386e-05
2.07386e-05
-1.82361e-05
4.8448e-05
-2.7685e-05
0.000108449
-5.99827e-05
0.000176744
-6.82777e-05
0.000227988
-5.12419e-05
0.000233395
-5.29912e-06
0.000139445
9.39861e-05
-5.59752e-05
0.000195421
-0.00026411
0.000208158
-0.000333125
6.90099e-05
-4.17564e-05
-0.000291355
0.000707208
-0.000748954
0.00128001
-0.000572864
0.00282692
-0.00154693
0.00344058
-0.000613598
0.00231581
0.00112468
0.00150305
0.000812736
-2.14621e-05
0.00152458
-0.000524686
0.00050316
-0.000248918
-0.000275737
-0.000176447
-7.25006e-05
0.000336606
-0.000513042
0.000511506
-0.000174886
0.000569242
-5.77622e-05
0.000938325
-0.000369067
0.000874506
6.38368e-05
-0.000160094
0.0010346
-0.00224961
0.00208952
-0.00483835
0.00258875
-0.00714704
0.0023087
-0.00832315
0.00117612
-0.00830804
-1.50982e-05
-0.00700211
-0.00130594
-0.00531069
-0.00169146
-0.00362662
-0.00168408
-0.00198013
-0.00164648
-0.00034309
-0.00163705
-5.14965e-05
-0.000291593
0.000143617
-0.000195097
-0.000469594
0.0328473
0.0297633
-0.0418062
0.0219493
0.0200406
0.013823
0.0115604
0.00884947
0.0062577
0.00593755
0.00349517
0.00415191
0.00212667
0.00296713
0.00141425
0.00212892
0.00100272
0.00151007
0.0007408
0.00103955
0.000562686
0.000675617
0.000435318
0.000390252
0.00034062
0.000165221
0.00026833
-9.0199e-06
0.000208167
-0.00015976
0.000175964
-0.000276521
0.000136956
-0.000367996
0.000106308
-0.000439275
8.2144e-05
-0.000493835
6.20465e-05
-0.000534346
4.5188e-05
-0.000563529
3.14753e-05
-0.000582842
1.95567e-05
-0.000594197
1.04309e-05
-0.000599034
2.81121e-06
-0.000598705
-4.24749e-06
-0.000593551
-9.98934e-06
-0.000584943
-1.31946e-05
-0.000573425
-1.66469e-05
-0.000559497
-1.98738e-05
-0.00054368
-2.173e-05
-0.000526489
-2.33027e-05
-0.000508235
-2.46194e-05
-0.000489284
-2.52751e-05
-0.000469924
-2.55862e-05
-0.000450382
-2.57412e-05
-0.000430865
-2.56395e-05
-0.000411509
-2.53208e-05
-0.000392514
-2.47546e-05
-0.000373963
-2.41331e-05
-0.000355862
-2.35124e-05
-0.000338202
-2.28927e-05
-0.000320945
-2.23275e-05
-0.000304025
-2.18638e-05
-0.000287388
-2.14788e-05
-0.000271024
-2.11045e-05
-0.000254991
-2.06562e-05
-0.00023947
-1.9979e-05
-0.000224698
-1.90015e-05
-0.000210946
-1.7678e-05
-0.000198497
-1.59897e-05
-0.00018751
-1.41031e-05
-0.000177999
-1.22051e-05
-0.000169721
-1.06215e-05
-0.000162093
-9.79535e-06
-0.000154136
-1.0231e-05
-0.000144355
-1.25942e-05
-0.000130769
-1.75097e-05
-0.000111047
-2.54316e-05
-8.29385e-05
-3.62484e-05
-4.49149e-05
-4.90251e-05
2.94941e-06
-6.17032e-05
5.72921e-05
-6.99938e-05
0.000113017
-7.16359e-05
0.000163242
-6.44083e-05
0.000202215
-4.97387e-05
0.000228179
-3.2911e-05
0.000244239
-2.0111e-05
0.000258957
-1.84635e-05
0.000284057
-3.18196e-05
0.000335092
-6.52794e-05
0.000426049
-0.00011659
0.000566514
-0.000180305
0.000741616
-0.000224369
0.000906652
-0.000210281
0.000977327
-8.68189e-05
0.000874361
0.000138555
0.00062402
0.00032695
0.000333352
0.000375042
0.000119784
0.000272917
6.38659e-05
6.75783e-05
0.000108024
-6.23618e-05
0.000192308
-0.000111953
0.000381474
-0.000249115
0.000595001
-0.000281782
0.000741279
-0.000197467
0.000730943
5.09944e-06
0.000367578
0.000457369
-0.000324781
0.000887774
-0.00104695
0.000930335
-0.00124065
0.000262681
-0.000301235
-0.00123079
0.00215106
-0.00320129
0.00396316
-0.00238492
0.00897576
-0.00655958
0.0115107
-0.00314854
0.00821211
0.00442337
0.00545581
0.00356897
0.00028394
0.00669653
-0.00161344
0.00240046
-0.000855787
-0.00103339
-0.000504665
-0.000423638
0.00117044
-0.00218816
0.00183272
-0.000837156
0.00203692
-0.000261967
0.00307349
-0.00140563
0.00248488
0.000652448
-0.00152817
0.00504765
-0.00884867
0.00941002
-0.0172149
0.0109549
-0.0240172
0.0091111
-0.0270803
0.00423912
-0.0262922
-0.000803151
-0.0219427
-0.00565541
-0.0162997
-0.00733439
-0.0109796
-0.00700421
-0.00584874
-0.00677732
-0.000877103
-0.00660867
7.88309e-05
-0.00124752
0.000524892
-0.000641142
-0.00197919
0.0425362
0.0321335
-0.0449064
0.0352019
0.0273748
0.026659
0.0201033
0.0193328
0.0135839
0.0139312
0.00889681
0.0101591
0.00589873
0.00751315
0.00406017
0.0056008
0.00291506
0.00417307
0.00216852
0.00307904
0.00165672
0.00222414
0.00129022
0.0015467
0.00101806
0.00100452
0.000810504
0.00056763
0.000645064
0.000217607
0.000526015
-6.54293e-05
0.000420017
-0.00029641
0.000337278
-0.000480832
0.000266555
-0.000627114
0.000208383
-0.000741332
0.000159485
-0.000829163
0.000119229
-0.000894875
8.53826e-05
-0.000941485
5.73209e-05
-0.000972443
3.3457e-05
-0.000990234
1.32235e-05
-0.00099735
-2.17341e-06
-0.000995815
-1.45734e-05
-0.000987116
-2.56981e-05
-0.000972041
-3.48754e-05
-0.000952074
-4.16047e-05
-0.000928212
-4.72112e-05
-0.000901245
-5.16096e-05
-0.000872034
-5.44378e-05
-0.000841236
-5.63604e-05
-0.000809364
-5.7629e-05
-0.000776906
-5.81034e-05
-0.000744219
-5.79947e-05
-0.000711716
-5.7253e-05
-0.000679625
-5.62334e-05
-0.000648022
-5.51233e-05
-0.000616939
-5.39778e-05
-0.000586354
-5.2916e-05
-0.000556188
-5.20391e-05
-0.000526376
-5.12998e-05
-0.000496925
-5.05614e-05
-0.000467964
-4.96223e-05
-0.000439832
-4.81169e-05
-0.000412978
-4.58614e-05
-0.00038791
-4.27494e-05
-0.000365157
-3.87453e-05
-0.000345036
-3.42254e-05
-0.000327592
-2.96507e-05
-0.000312415
-2.57993e-05
-0.000298466
-2.37439e-05
-0.000283979
-2.47173e-05
-0.000266266
-3.03073e-05
-0.000241745
-4.20314e-05
-0.000206209
-6.09696e-05
-0.000155562
-8.68974e-05
-8.70304e-05
-0.00011756
-5.2608e-07
-0.000148213
9.79929e-05
-0.00016852
0.000199663
-0.000173316
0.000292235
-0.000156991
0.000365319
-0.000122833
0.000415305
-8.29039e-05
0.000447499
-5.23109e-05
0.000476924
-4.78907e-05
0.000524976
-7.98742e-05
0.00061958
-0.000159889
0.000786461
-0.000283478
0.00104311
-0.000436957
0.00136509
-0.000546366
0.00167542
-0.000520617
0.00182591
-0.000237309
0.00167078
0.000293684
0.00124112
0.000756618
0.00071808
0.000898085
0.000317161
0.000673855
0.000191947
0.00019281
0.000247026
-0.000117414
0.000378049
-0.000242951
0.000694921
-0.000565954
0.00104773
-0.000634574
0.00127135
-0.000421035
0.00121104
6.53842e-05
0.00051262
0.00115582
-0.000763905
0.00216429
-0.00206325
0.0022297
-0.00235614
0.000555558
-0.000743129
-0.0028438
0.00349985
-0.00744429
0.0064314
-0.00531643
0.0151045
-0.0152328
0.0202103
-0.00825432
0.0150373
0.00959643
0.0103043
0.00830188
0.00106689
0.015934
-0.00261565
0.00608293
-0.00150618
-0.00214283
-0.00080304
-0.0011268
0.002145
-0.0051362
0.00338677
-0.00207891
0.00374452
-0.000619724
0.00529117
-0.00295229
0.00369143
0.00225219
-0.00409606
0.0128351
-0.0173801
0.022694
-0.031569
0.0251439
-0.0422209
0.019763
-0.0463132
0.00833146
-0.044096
-0.00302035
-0.0363902
-0.0133612
-0.0267358
-0.0169888
-0.0177584
-0.0159816
-0.00934512
-0.0151906
-0.00116811
-0.0147857
0.000411313
-0.00282694
0.00101287
-0.00124268
-0.00453869
0.0483417
0.0316978
-0.047906
0.0450015
0.030715
0.0386549
0.0264498
0.0312964
0.0209423
0.024479
0.0157142
0.0188756
0.0115021
0.0145199
0.00841585
0.0111832
0.00625183
0.00861092
0.00474076
0.00660185
0.00366578
0.00501134
0.00288074
0.00373761
0.00229179
0.00270839
0.00183973
0.00187106
0.0014824
0.00119046
0.00120665
0.000633069
0.000977429
0.000178593
0.000791743
-0.000192341
0.000637482
-0.000493596
0.000509695
-0.000735002
0.000400966
-0.000926725
0.00031091
-0.00107627
0.000234859
-0.00119036
0.000171502
-0.00127476
0.000117791
-0.00133463
7.33636e-05
-0.00137294
3.67693e-05
-0.00139336
5.63591e-06
-0.0014
-1.9409e-05
-0.00139481
-3.99143e-05
-0.00137926
-5.71106e-05
-0.00135556
-7.09628e-05
-0.0013252
-8.19629e-05
-0.00128978
-8.98117e-05
-0.00125054
-9.55941e-05
-0.00120844
-9.97401e-05
-0.0011644
-0.000102137
-0.00111913
-0.000103253
-0.00107336
-0.000103024
-0.00102756
-0.000102044
-0.000981948
-0.00010074
-0.000936661
-9.92668e-05
-0.000891739
-9.78425e-05
-0.000847132
-9.66556e-05
-0.0008028
-9.56408e-05
-0.000758797
-9.45704e-05
-0.000715351
-9.30742e-05
-0.000672995
-9.04796e-05
-0.000632433
-8.64297e-05
-0.00059446
-8.07263e-05
-0.0005599
-7.33079e-05
-0.000529273
-6.48538e-05
-0.000502681
-5.62448e-05
-0.000479542
-4.89381e-05
-0.000458329
-4.49571e-05
-0.000436398
-4.66488e-05
-0.000409712
-5.6993e-05
-0.000372889
-7.88553e-05
-0.000319607
-0.000114254
-0.000243673
-0.000162833
-0.000140861
-0.000220375
-1.11479e-05
-0.000277931
0.000137911
-0.000317586
0.000292435
-0.00032785
0.000434604
-0.000299172
0.000548734
-0.000236976
0.000628788
-0.000162971
0.000682109
-0.000105641
0.00073066
-9.64486e-05
0.000806553
-0.000155775
0.000951626
-0.00030497
0.00120484
-0.000536701
0.00159321
-0.000825342
0.00208382
-0.00103698
0.00256755
-0.00100436
0.00282862
-0.000498375
0.0026425
0.000479804
0.00203236
0.00136676
0.00125195
0.0016785
0.000627888
0.00129794
0.000401672
0.000419045
0.000443018
-0.000158722
0.000607673
-0.000407581
0.00104858
-0.00100682
0.00153286
-0.00111883
0.00181085
-0.000698987
0.00165802
0.000218159
0.000543682
0.00227019
-0.00140552
0.00411347
-0.00332954
0.00415372
-0.0036843
0.000910296
-0.00138359
-0.00514452
0.00469666
-0.0135246
0.00857976
-0.00919949
0.0210287
-0.0276817
0.0293763
-0.0166019
0.0227466
0.0162262
0.016174
0.0148744
0.00251096
0.0295972
-0.00345341
0.0120472
-0.00216696
-0.00342927
-0.00104572
-0.00224806
0.00327463
-0.00945656
0.00518797
-0.00399223
0.00568657
-0.00111834
0.00751031
-0.00477602
0.00427972
0.00548278
-0.00819362
0.0253085
-0.0279902
0.0424907
-0.0477163
0.0448699
-0.0612593
0.033306
-0.0653732
0.0124454
-0.0610714
-0.00732218
-0.0499037
-0.0245288
-0.0362955
-0.0305969
-0.023807
-0.0284701
-0.0123179
-0.0266797
-0.00113656
-0.025967
0.00100752
-0.00497102
0.00164214
-0.00187728
-0.00813597
0.0521617
0.0305814
-0.0510453
0.0514961
0.0313806
0.0480687
0.0298772
0.042512
0.026499
0.0360187
0.0222075
0.0296317
0.0178891
0.023948
0.0140996
0.0191645
0.0110353
0.0152441
0.00866111
0.0120592
0.00685075
0.00947084
0.00546907
0.00735917
0.00440345
0.00562841
0.00357049
0.00420355
0.00290727
0.00303003
0.00238019
0.00205968
0.0019478
0.00125822
0.00159319
0.000597343
0.00129836
5.5592e-05
0.0010515
-0.000389336
0.000845923
-0.000749614
0.000671156
-0.00103834
0.000523536
-0.00126653
0.000399723
-0.00144354
0.00029501
-0.0015773
0.000207227
-0.00167492
0.000134331
-0.00174289
7.3084e-05
-0.00178363
2.12497e-05
-0.00180286
-2.05389e-05
-0.00180573
-5.42262e-05
-0.00179302
-8.37e-05
-0.00176798
-0.000106974
-0.00173326
-0.000124499
-0.00169095
-0.000137902
-0.00164272
-0.000147983
-0.00159011
-0.000154738
-0.00153435
-0.000159
-0.00147666
-0.000160723
-0.00141787
-0.000160841
-0.00135846
-0.00016015
-0.00129877
-0.000158969
-0.00123896
-0.000157659
-0.00117907
-0.000156549
-0.00111915
-0.000155572
-0.00105934
-0.00015439
-0.001
-0.000152418
-0.00094191
-0.000148577
-0.000886077
-0.000142268
-0.000833639
-0.000133168
-0.000785772
-0.000121177
-0.000743251
-0.000107377
-0.000706267
-9.32294e-05
-0.000674076
-8.11293e-05
-0.000644615
-7.44178e-05
-0.000614278
-7.69864e-05
-0.000577542
-9.37293e-05
-0.000527021
-0.000129377
-0.000454035
-0.00018724
-0.000350049
-0.000266821
-0.00020912
-0.000361307
-3.10308e-05
-0.000456024
0.000174677
-0.000523301
0.000389326
-0.000542509
0.000588961
-0.000498819
0.000751928
-0.000399955
0.000869125
-0.00028018
0.000949603
-0.00018613
0.00102262
-0.000169474
0.00113189
-0.000265054
0.00133451
-0.000507601
0.00168401
-0.000886206
0.00221866
-0.00136001
0.00289881
-0.00171714
0.00358528
-0.00169085
0.00399336
-0.000906461
0.00380743
0.000665739
0.00302498
0.00214922
0.00196535
0.00273814
0.00107699
0.00218633
0.000708853
0.000787198
0.000706262
-0.000156101
0.000884482
-0.000585779
0.00144144
-0.00156375
0.00204411
-0.00172148
0.00234647
-0.00100131
0.00204731
0.000517303
0.000430616
0.00388691
-0.00228209
0.00682617
-0.00486236
0.006734
-0.00521804
0.00126596
-0.00221932
-0.00814325
0.00567334
-0.0214172
0.010409
-0.0139351
0.0266141
-0.0438868
0.0386554
-0.0286432
0.0312063
0.0236753
0.0231326
0.022948
0.00478325
0.0479466
-0.00402781
0.0208582
-0.00280956
-0.00464749
-0.0012131
-0.00384453
0.00456495
-0.0152346
0.00724935
-0.00667662
0.00785685
-0.00172584
0.00963178
-0.00655096
0.00403444
0.0110801
-0.0140259
0.0433688
-0.0407097
0.0691744
-0.0653035
0.0694638
-0.0805178
0.0485203
-0.0836439
0.0155715
-0.0768338
-0.0141322
-0.0622133
-0.0391494
-0.0449217
-0.0478885
-0.0290831
-0.0443087
-0.0147729
-0.0409899
-0.000783077
-0.0399568
0.00187689
-0.00763098
0.00245055
-0.00245092
-0.0127746
0.0552997
0.0296264
-0.0543447
0.0558292
0.0308511
0.0547093
0.0309971
0.0515444
0.0296639
0.0467049
0.0270469
0.0409275
0.0236665
0.0349373
0.0200897
0.0292551
0.0167175
0.0241603
0.0137559
0.0197443
0.0112667
0.0159881
0.00922536
0.0128226
0.00756895
0.0101656
0.0062274
0.00793841
0.00513452
0.00607461
0.00424402
0.00451422
0.0035082
0.0032097
0.00289771
0.00212099
0.00238709
0.00121519
0.00195735
0.000465366
0.00159575
-0.000151815
0.00128833
-0.000656915
0.00102866
-0.00106536
0.000808137
-0.00139159
0.000621346
-0.00164786
0.000463501
-0.00184472
0.000330891
-0.00199099
0.000219416
-0.00209688
0.000127362
-0.00216634
4.90477e-05
-0.00220362
-1.69354e-05
-0.00221922
-6.81055e-05
-0.00221289
-0.000113268
-0.00218964
-0.000147737
-0.00215285
-0.0001747
-0.00210522
-0.000195606
-0.00204925
-0.000210704
-0.00198691
-0.000221335
-0.0019201
-0.000227535
-0.00185024
-0.000230707
-0.00177822
-0.00023218
-0.00170467
-0.000232523
-0.00163002
-0.000232311
-0.0015545
-0.000232078
-0.0014783
-0.000231787
-0.00140171
-0.000230988
-0.00132529
-0.000228841
-0.00125011
-0.000223762
-0.00117756
-0.000214832
-0.00110916
-0.000201571
-0.00104651
-0.000183824
-0.000990712
-0.00016318
-0.000942074
-0.000141869
-0.0008997
-0.000123503
-0.000860962
-0.000113155
-0.000821203
-0.000116745
-0.000773271
-0.000141662
-0.000707581
-0.000195067
-0.000612868
-0.000281954
-0.000478
-0.00040169
-0.000295096
-0.000544215
-6.35335e-05
-0.000687592
0.000205208
-0.00079205
0.000487638
-0.000824949
0.000753281
-0.000764473
0.000973838
-0.000620524
0.00113638
-0.000442736
0.00125114
-0.0003009
0.00135478
-0.000273127
0.0015033
-0.000413579
0.00177023
-0.000774538
0.0022248
-0.00134079
0.00291835
-0.00205357
0.00380712
-0.00260591
0.0047259
-0.00260964
0.0053228
-0.00150337
0.00517899
0.000809545
0.00424376
0.00308446
0.00288841
0.00409351
0.00169118
0.00338358
0.00113062
0.00134778
0.00104394
-6.93788e-05
0.00121079
-0.000752603
0.00187245
-0.00222539
0.00257712
-0.00242613
0.0028662
-0.00129035
0.00235658
0.00102691
0.000136131
0.00610736
-0.00342199
0.0103843
-0.00666681
0.00997884
-0.00693783
0.00153694
-0.00323677
-0.0118443
0.00634202
-0.0309961
0.0120518
-0.0196449
0.0318124
-0.0636476
0.0475861
-0.0444169
0.0401677
0.0310937
0.0311784
0.0319373
0.0080596
0.0710655
-0.00422158
0.0331393
-0.00338777
-0.00548127
-0.00127403
-0.00595829
0.0060157
-0.0225243
0.00957988
-0.0102408
0.0102365
-0.0023825
0.0115254
-0.00783979
0.0027084
0.0198971
-0.0217998
0.0678769
-0.0554095
0.102784
-0.0838114
0.0978657
-0.0992971
0.0640061
-0.100601
0.0168751
-0.0910924
-0.0236405
-0.0732613
-0.0569805
-0.0526096
-0.0685402
-0.0336682
-0.06325
-0.0167098
-0.0579484
-9.68645e-05
-0.0565697
0.00305232
-0.0107801
0.00348533
-0.00288391
-0.0184602
0.0585343
0.0289611
-0.057869
0.0593041
0.0300812
0.0594178
0.0308833
0.058192
0.0308898
0.0553827
0.0298562
0.0511819
0.0278673
0.0460355
0.0252361
0.0404479
0.0223051
0.0348522
0.0193516
0.029554
0.0165649
0.0247285
0.0140509
0.0204467
0.0118508
0.0167113
0.00996276
0.0134874
0.00835838
0.0107264
0.00700507
0.00837266
0.00586198
0.00637424
0.00489613
0.00468364
0.00407772
0.00325901
0.00338204
0.00206417
0.0027906
0.00106702
0.00228549
0.000240582
0.00185515
-0.000439397
0.00148804
-0.000993592
0.00117554
-0.00143987
0.000909853
-0.00179406
0.00068493
-0.00206943
0.000495042
-0.00227781
0.000335866
-0.00243061
0.000201869
-0.00253812
9.05171e-05
-0.00259997
-6.26082e-06
-0.00263331
-7.98961e-05
-0.00263793
-0.000143109
-0.00261989
-0.000192743
-0.00258346
-0.000232035
-0.00253249
-0.000261659
-0.00247008
-0.000283741
-0.00239913
-0.000298497
-0.00232188
-0.000307966
-0.00223984
-0.000314219
-0.00215416
-0.000318204
-0.00206569
-0.000320795
-0.00197495
-0.00032283
-0.00188238
-0.000324361
-0.00178854
-0.000324835
-0.00169426
-0.000323138
-0.00160095
-0.000317079
-0.00151044
-0.000305347
-0.00142474
-0.000287269
-0.00134595
-0.000262617
-0.00127553
-0.0002336
-0.00121399
-0.000203413
-0.00116029
-0.000177202
-0.00111121
-0.000162232
-0.00106098
-0.000166981
-0.00100067
-0.000201973
-0.000918325
-0.000277413
-0.000799871
-0.00040041
-0.000631346
-0.000570218
-0.000402705
-0.000772859
-0.000112686
-0.000977617
0.000225468
-0.00113021
0.000583504
-0.001183
0.000924176
-0.00110516
0.00121189
-0.000908253
0.00142905
-0.000659904
0.00158628
-0.000458148
0.00172752
-0.000414375
0.00192135
-0.000607415
0.00225858
-0.00111178
0.00282506
-0.00190728
0.00368701
-0.00291553
0.00480017
-0.00371908
0.00597953
-0.00378901
0.00681172
-0.00233556
0.00676446
0.0008568
0.00571129
0.00413764
0.00405325
0.00575155
0.00250061
0.00493625
0.00168677
0.00216164
0.00146558
0.000151823
0.0015896
-0.000876602
0.00234031
-0.00297607
0.0031267
-0.0032125
0.00335683
-0.00152044
0.00255951
0.00182423
-0.000352646
0.00901954
-0.00485128
0.0148829
-0.0087387
0.0138663
-0.00881484
0.00161306
-0.00441615
-0.016243
0.0065923
-0.0420045
0.0137241
-0.0267766
0.0366553
-0.0865789
0.055569
-0.0633306
0.0492395
0.0374232
0.0402096
0.0409672
0.0124909
0.0987843
-0.00389718
0.0495273
-0.00384089
-0.00553753
-0.00119647
-0.00860274
0.00762218
-0.031343
0.0121797
-0.0147983
0.0127913
-0.00299409
0.0130381
-0.00808669
5.31412e-05
0.0328821
-0.0316207
0.0995508
-0.0718165
0.14298
-0.102591
0.128641
-0.117036
0.078451
-0.116048
0.0158866
-0.103971
-0.0357173
-0.083239
-0.0777124
-0.0595972
-0.092182
-0.0377863
-0.0850609
-0.018286
-0.0774487
0.0010235
-0.0758792
0.0045455
-0.0143021
0.0047934
-0.0031318
-0.0252214
0.0621294
0.0284809
-0.0616492
0.0627665
0.0294441
0.0632696
0.0303801
0.0631418
0.0310175
0.0619555
0.0310426
0.0595186
0.0303041
0.0558981
0.0288566
0.0513415
0.0268616
0.0461818
0.0245113
0.0407593
0.0219874
0.0353681
0.0194421
0.0302279
0.016991
0.0254789
0.0147117
0.0211921
0.0126453
0.0173887
0.0108085
0.0140556
0.00919503
0.0111623
0.0077895
0.00866927
0.00657075
0.006535
0.00551636
0.00471916
0.00460645
0.00318339
0.00382129
0.00189302
0.00314555
0.000816392
0.00256461
-7.45409e-05
0.00206648
-0.000805065
0.0016405
-0.0013974
0.00127724
-0.00187083
0.000968668
-0.00224297
0.000708042
-0.00252819
0.000487056
-0.00273966
0.00030198
-0.00289487
0.000148997
-0.00298967
1.492e-05
-0.00304649
-8.62786e-05
-0.0030671
-0.000172137
-0.00305788
-0.000241247
-0.00302477
-0.000294762
-0.00297252
-0.000335998
-0.00290542
-0.000365602
-0.00282695
-0.000386438
-0.00273957
-0.000401606
-0.00264517
-0.000412606
-0.00254524
-0.000420736
-0.00244081
-0.000427273
-0.00233273
-0.00043245
-0.00222192
-0.00043565
-0.00210958
-0.000435493
-0.00199757
-0.000429092
-0.00188826
-0.000414665
-0.00178421
-0.000391321
-0.0016881
-0.000358734
-0.00160185
-0.000319852
-0.00152621
-0.000279053
-0.00146005
-0.000243359
-0.00139955
-0.00022273
-0.00133775
-0.000228786
-0.00126385
-0.000275872
-0.00116337
-0.000377899
-0.00101923
-0.000544552
-0.000814432
-0.000775016
-0.000536545
-0.00105075
-0.000183396
-0.00133077
0.000230291
-0.00154391
0.000671695
-0.00162441
0.00109669
-0.00153016
0.00146181
-0.00127339
0.00174382
-0.000941925
0.00195272
-0.000667062
0.00213915
-0.000600815
0.00238418
-0.000852453
0.00279632
-0.00152393
0.00347865
-0.00258961
0.00451412
-0.00395101
0.00586256
-0.00506753
0.00732759
-0.00525405
0.00844477
-0.00345274
0.00856167
0.000739895
0.00744435
0.00525497
0.00549095
0.00770497
0.00353741
0.00688981
0.00239888
0.00330019
0.00198258
0.000568157
0.00202461
-0.00091861
0.00284442
-0.00379584
0.00368887
-0.00405693
0.0038062
-0.00163773
0.00263058
0.00299985
-0.00107809
0.0127282
-0.00658909
0.0203939
-0.0110603
0.0183375
-0.0108134
0.00136613
-0.0057453
-0.0213111
0.00629033
-0.0540402
0.0155913
-0.0360775
0.0411426
-0.11213
0.0619911
-0.084179
0.057913
0.0415013
0.0500003
0.0488799
0.0181925
0.130592
-0.00289811
0.0706179
-0.00408696
-0.00434865
-0.000941742
-0.011748
0.00937485
-0.0416596
0.0150382
-0.0204616
0.015465
-0.00342091
0.0139893
-0.00661098
-0.0040785
0.0509499
-0.0435074
0.13898
-0.0895156
0.188988
-0.120989
0.160114
-0.133376
0.0908382
-0.130057
0.0125677
-0.115764
-0.0500104
-0.0925073
-0.100969
-0.066177
-0.118512
-0.0417848
-0.109453
-0.0197381
-0.0994954
0.00245337
-0.0980707
0.00638176
-0.0182305
0.00642707
-0.0031771
-0.0331005
0.0660766
0.0280922
-0.065688
0.0665468
0.0289738
0.0670424
0.0298846
0.0673289
0.0307309
0.0670791
0.0312924
0.0659991
0.0313841
0.0639222
0.0309335
0.0608308
0.0299531
0.0568351
0.028507
0.052134
0.0266884
0.0469727
0.0246035
0.0416041
0.0223596
0.036258
0.0200578
0.0311192
0.0177841
0.0263188
0.0156089
0.0219342
0.0135797
0.0179995
0.0117242
0.0145173
0.0100529
0.01147
0.00856366
0.00882876
0.00724773
0.00655851
0.00609158
0.00462268
0.00508141
0.00298471
0.00420255
0.00160993
0.00344129
0.00046592
0.00278462
-0.000477029
0.00222019
-0.00124562
0.00173735
-0.00186434
0.00132677
-0.002354
0.000976703
-0.00273341
0.000681421
-0.00301826
0.000433869
-0.00323078
0.000227471
-0.00336973
5.26752e-05
-0.0034564
-8.54633e-05
-0.00349853
-0.000199109
-0.00350259
-0.000290701
-0.00347597
-0.000362622
-0.00342511
-0.000416465
-0.0033552
-0.000456351
-0.00327008
-0.000486733
-0.00317278
-0.000509908
-0.00306575
-0.000527779
-0.00295079
-0.000542246
-0.00282938
-0.000553871
-0.00270298
-0.000562056
-0.00257329
-0.000565198
-0.00244274
-0.000559644
-0.00231434
-0.00054307
-0.00219131
-0.000514357
-0.002077
-0.000473046
-0.00197391
-0.000422951
-0.00188309
-0.00036987
-0.00180339
-0.000323063
-0.00173038
-0.000295733
-0.0016559
-0.000303269
-0.0015672
-0.000364574
-0.00144714
-0.000497955
-0.00127553
-0.000716168
-0.00103215
-0.0010184
-0.000701966
-0.00138095
-0.000281581
-0.00175116
0.000213201
-0.0020387
0.000745348
-0.00215657
0.00126394
-0.00204877
0.00171711
-0.00172658
0.00207497
-0.0012998
0.00234553
-0.000937629
0.00258512
-0.00084042
0.00288663
-0.00115397
0.00337618
-0.00201349
0.00417438
-0.00338782
0.00538279
-0.00515942
0.00697101
-0.00665576
0.00874155
-0.0070246
0.0101943
-0.00490545
0.0105558
0.000378369
0.00945071
0.00636005
0.00722972
0.00992597
0.0048357
0.00928386
0.00329277
0.00484313
0.00260799
0.00125296
0.00252144
-0.000832034
0.00338542
-0.00465979
0.00426107
-0.00493256
0.0042027
-0.00157933
0.00254362
0.00465893
-0.00207559
0.0173475
-0.00864648
0.0269648
-0.0136006
0.0232916
-0.0128989
0.000664383
-0.00723901
-0.026971
0.00530093
-0.0665802
0.0175798
-0.0483564
0.0450848
-0.139635
0.0663571
-0.105451
0.0656278
0.0422307
0.0601911
0.0543165
0.0252232
0.16556
-0.00104511
0.096886
-0.00401925
-0.00137447
-0.000461928
-0.0153053
0.0112623
-0.0533838
0.0181303
-0.0273296
0.0181752
-0.00346579
0.0141753
-0.00261112
-0.00997496
0.0751001
-0.0573711
0.186376
-0.108005
0.239622
-0.13848
0.190589
-0.148336
0.100694
-0.143071
0.00730257
-0.127033
-0.0660487
-0.101561
-0.126441
-0.0727631
-0.14731
-0.0461245
-0.136092
-0.0214507
-0.124169
0.0041272
-0.123649
0.00857468
-0.022678
0.00843739
-0.00303978
-0.0421613
0.0703352
0.0277527
-0.0699957
0.0707015
0.0286074
0.0711008
0.0294853
0.0714524
0.0303794
0.0715854
0.0311593
0.0712798
0.0316897
0.0703275
0.0318858
0.0685789
0.0317017
0.065966
0.0311199
0.0625059
0.0301485
0.0582909
0.0288185
0.0534732
0.0271773
0.0482454
0.0252856
0.0428165
0.023213
0.037389
0.0210364
0.0321362
0.0188325
0.0271898
0.0166706
0.0226362
0.0146065
0.0185214
0.0126786
0.0148595
0.0109096
0.0116423
0.00930882
0.00884716
0.00787657
0.00644287
0.00660684
0.00439417
0.00549003
0.0026644
0.00451446
0.00121732
0.00366728
1.80731e-05
0.00293662
-0.000962448
0.0023073
-0.00175632
0.00177059
-0.0023887
0.00131383
-0.00288318
0.000928375
-0.00325872
0.00060302
-0.00354025
0.000334199
-0.00373504
0.000109335
-0.00385962
-7.4517e-05
-0.0039302
-0.000220114
-0.00395241
-0.000340423
-0.00393635
-0.000432529
-0.00388988
-0.000502821
-0.00381886
-0.000557763
-0.00372795
-0.000600822
-0.00362102
-0.000634722
-0.00350103
-0.000662249
-0.00337039
-0.000684516
-0.00323137
-0.000701086
-0.00308633
-0.000710247
-0.00293845
-0.000707532
-0.00279151
-0.000690023
-0.00264949
-0.00065638
-0.00251657
-0.000605972
-0.00239591
-0.000543611
-0.00228901
-0.000476765
-0.00219476
-0.000417316
-0.00210819
-0.000382301
-0.00201993
-0.000391536
-0.00191525
-0.000469253
-0.00177433
-0.000638879
-0.00157374
-0.000916759
-0.00128996
-0.00130218
-0.000905131
-0.00176578
-0.000414289
-0.00224202
0.000166217
-0.00261922
0.000795708
-0.00278607
0.00141672
-0.00266979
0.00196863
-0.0022785
0.00241378
-0.00174496
0.00275646
-0.00128032
0.00305718
-0.00114116
0.00341931
-0.00151611
0.00398587
-0.00258005
0.00489508
-0.00429704
0.00626895
-0.00653329
0.00809364
-0.00848046
0.0101822
-0.00911318
0.0120189
-0.00674211
0.0127162
-0.000318967
0.0117249
0.00735137
0.00929161
0.0123593
0.00643021
0.0121453
0.00439791
0.00687546
0.00336076
0.00229014
0.0030888
-0.000560057
0.00396602
-0.00553697
0.00484151
-0.00580804
0.00453592
-0.00127368
0.00227343
0.00692142
-0.00337042
0.0229913
-0.0110244
0.0346187
-0.0163163
0.0285836
-0.0150475
-0.000604425
-0.00895576
-0.0330627
0.0035448
-0.0790807
0.0193119
-0.0641235
0.0480155
-0.168339
0.0684659
-0.125902
0.0719103
0.0387863
0.0703142
0.0559125
0.033574
0.202301
0.00176808
0.128692
-0.00351621
0.00390985
0.000268575
-0.0190901
0.0132739
-0.0663892
0.0214123
-0.035468
0.0208106
-0.00286409
0.0133817
0.00481779
-0.0177915
0.106273
-0.0730215
0.241606
-0.12664
0.293241
-0.154779
0.218728
-0.162229
0.108144
-0.155591
0.000664438
-0.138305
-0.0833345
-0.110881
-0.153864
-0.0797421
-0.17845
-0.0512832
-0.164551
-0.0238753
-0.151577
0.00592578
-0.15345
0.0111492
-0.0279015
0.0108822
-0.00277275
-0.0524787
0.0749046
0.0274466
-0.0745985
0.0752161
0.028296
0.0755396
0.0291617
0.0758502
0.0300687
0.0760767
0.0309329
0.0761007
0.0316656
0.0757752
0.0322114
0.0749483
0.0325285
0.073489
0.0325792
0.0713039
0.0323335
0.0683493
0.031773
0.0646364
0.0308903
0.060233
0.029689
0.0552601
0.0281859
0.0498823
0.0264142
0.0442899
0.0244249
0.0386761
0.0222844
0.0332152
0.0200674
0.0280463
0.0178475
0.0232665
0.0156895
0.0189325
0.0136429
0.0150675
0.0117416
0.0116694
0.010005
0.00871885
0.0084406
0.00618569
0.00704765
0.00403375
0.00581922
0.00222468
0.00474572
0.000719252
0.00381275
-0.000518642
0.00300851
-0.0015241
0.00231931
-0.0023299
0.00173419
-0.00296358
0.0012367
-0.00345007
0.000820695
-0.00381664
0.000475916
-0.00408004
0.000188893
-0.00425188
-4.82739e-05
-0.00435861
-0.000233699
-0.00440531
-0.000385828
-0.00440477
-0.000503364
-0.0043658
-0.000596746
-0.00429558
-0.000671051
-0.00420004
-0.00073027
-0.00408388
-0.000778421
-0.00395089
-0.000817518
-0.00380447
-0.000847515
-0.00364794
-0.00086679
-0.00348541
-0.00087007
-0.00332163
-0.00085381
-0.00316152
-0.000816495
-0.00301022
-0.000757276
-0.00287174
-0.0006821
-0.00274814
-0.000600366
-0.00263848
-0.000526975
-0.00253736
-0.000483421
-0.00243426
-0.000494635
-0.00231254
-0.000590975
-0.0021497