/*--------------------------------*- C++ -*----------------------------------*\
| =========                 |                                                 |
| \\      /  F ield         | OpenFOAM: The Open Source CFD Toolbox           |
|  \\    /   O peration     | Version:  2412                                  |
|   \\  /    A nd           | Website:  www.openfoam.com                      |
|    \\/     M anipulation  |                                                 |
\*---------------------------------------------------------------------------*/
FoamFile
{
    version     2.0;
    format      ascii;
    arch        "LSB;label=32;scalar=64";
    class       volVectorField;
    location    "0.72";
    object      ddtCorrDdt0(U);
}
// * * * * * * * * * * * * * * * * * * * * * * * * * * * * * * * * * * * * * //

dimensions      [0 1 -2 0 0 0 0];

internalField   nonuniform List<vector> 
12600
(
(-0.156901 1.43438e-21 0.0341121)
(-0.138378 3.59978e-21 0.0103055)
(-0.145081 4.98147e-22 0.0062616)
(-0.135739 0 0.0104924)
(-0.118109 -3.31172e-21 0.0122728)
(-0.105988 -4.29255e-21 0.0112358)
(-0.0992035 0 0.00928143)
(-0.0928957 0 0.0101453)
(-0.0858775 2.38399e-20 0.0107057)
(-0.0781531 0 0.0108848)
(-0.0698052 -1.32915e-20 0.0108815)
(-0.0616361 -1.36325e-20 0.01079)
(-0.0546329 1.37535e-20 0.0106631)
(-0.049189 0 0.0104648)
(-0.0448457 1.33001e-20 0.0100985)
(-0.0407427 0 0.00950106)
(-0.0362393 -4.93397e-20 0.0086932)
(-0.0311932 0 0.00775369)
(-0.0258642 2.1468e-20 0.00676784)
(-0.020667 1.96182e-20 0.00579842)
(-0.015957 -1.75725e-20 0.00488302)
(-0.0119167 6.24458e-23 0.00404059)
(-0.00855343 0 0.00327764)
(-0.00577128 2.21451e-20 0.00259495)
(-0.0034527 0 0.00199337)
(-0.00149443 0 0.00147411)
(0.000204732 9.31712e-21 0.00103387)
(0.00176548 0 0.000660924)
(0.00333067 -2.87156e-22 0.000335112)
(0.00505123 1.39686e-21 3.05279e-05)
(0.00706434 4.59612e-21 -0.000280556)
(0.00946406 7.56845e-21 -0.000622577)
(0.0122712 -1.03347e-20 -0.00101177)
(0.0154174 -2.5842e-20 -0.00145322)
(0.0187508 -3.07093e-20 -0.00194068)
(0.0220571 3.56332e-20 -0.00245759)
(0.025084 0 -0.00297877)
(0.0275677 -4.39097e-20 -0.00347219)
(0.0292581 0 -0.00390143)
(0.0299398 5.15879e-20 -0.00422797)
(0.0294498 0 -0.00441438)
(0.0276951 -3.3447e-22 -0.00442847)
(0.0246693 0 -0.0042484)
(0.020465 -2.87957e-22 -0.00386703)
(0.0152659 1.24954e-19 -0.00329309)
(0.00932703 -1.24104e-19 -0.00254976)
(0.00293379 1.2155e-19 -0.0016698)
(-0.00362487 0 -0.000692569)
(-0.0100956 0 0.000341841)
(-0.0162616 1.00351e-19 0.00139288)
(-0.0219751 1.78592e-19 0.0024267)
(-0.0271235 1.53526e-19 0.00341213)
(-0.0316611 4.68545e-22 0.00432861)
(-0.0355322 9.68124e-20 0.0051547)
(-0.0387389 0 0.00588106)
(-0.0412272 -3.44511e-20 0.00649156)
(-0.0430193 -3.31442e-21 0.00698513)
(-0.0440359 2.50099e-20 0.00734566)
(-0.0443363 0 0.00757999)
(-0.0438368 0 0.007672)
(-0.0427034 0 0.00764428)
(-0.0408817 -2.33979e-19 0.00748381)
(-0.0387002 0 0.00723765)
(-0.0361071 0 0.0068934)
(-0.0335827 5.76973e-19 0.0065258)
(-0.030975 0 0.00611136)
(-0.0288625 0 0.00574858)
(-0.0269058 0 0.00538907)
(-0.0257857 -4.92477e-19 0.00515479)
(-0.0249617 4.37294e-19 0.00496499)
(-0.0252114 3.99776e-19 0.00496135)
(-0.0257725 -2.79135e-22 0.00502011)
(-0.027414 -3.05674e-19 0.00528211)
(-0.0291396 0 0.00557778)
(-0.0315486 2.24319e-19 0.00601755)
(-0.0335199 0 0.00641668)
(-0.0355536 0 0.00683488)
(-0.0365857 0 0.00714097)
(-0.0375547 -3.11531e-22 0.0073698)
(-0.037305 1.53189e-19 0.00754369)
(-0.037709 7.37827e-20 0.00764074)
(-0.0369576 -1.69966e-19 0.00779985)
(-0.0374592 1.24418e-19 0.00782526)
(-0.0377807 0 0.00797358)
(-0.0380535 0 0.00790521)
(-0.0414759 6.55809e-19 0.00825123)
(-0.0394362 1.72444e-18 0.00825702)
(-0.0485543 4.01125e-19 0.0089835)
(-0.0405793 -6.25291e-20 0.00877183)
(-0.0564725 0 0.00974743)
(-0.0443067 -4.38243e-18 0.00900891)
(-0.0594318 -4.57529e-18 0.0106722)
(-0.0433151 -5.76603e-18 0.00944538)
(-0.0657355 -1.6018e-17 0.0103513)
(-0.0296776 0 0.00866221)
(-0.0702854 0 0.00975318)
(-0.038949 0 0.00850251)
(-0.0497564 0 0.0123061)
(-0.0464676 0 0.00825366)
(0.00666437 0 -0.0011552)
(-0.302017 -4.36896e-17 0.0572248)
(0.503427 5.46024e-17 -0.0969987)
(-0.156365 -4.94224e-17 0.0328946)
(-1.56413 0 0.268848)
(3.27673 0 -0.624923)
(-1.55979 0 0.310758)
(-3.45443 -1.83146e-16 0.605579)
(6.04585 3.50407e-16 -1.14549)
(-2.60411 1.73523e-16 0.647083)
(-6.66242 0 1.19166)
(11.6242 -2.29359e-16 -2.25213)
(4.37888 0 -0.750925)
(-14.7656 -3.60403e-16 2.80832)
(-2.1935 -4.8626e-16 0.322881)
(10.3721 -3.94349e-16 -1.97174)
(3.25544 2.45462e-16 -0.567846)
(-4.70934 1.91296e-16 0.926938)
(-5.48562 -6.21288e-20 1.03154)
(-3.2722 2.64722e-16 0.600507)
(-0.225737 0 0.0640807)
(-0.159734 -1.44814e-21 0.0640894)
(-0.184973 0 0.0342285)
(-0.219845 -5.04642e-22 0.0151624)
(-0.233432 0 0.0160572)
(-0.223984 3.35507e-21 0.020429)
(-0.211869 7.89945e-21 0.0215621)
(-0.202035 4.72365e-21 0.0206275)
(-0.192006 0 0.0222487)
(-0.182073 -4.72875e-22 0.0236169)
(-0.171188 1.22059e-20 0.0245555)
(-0.15978 -1.28258e-20 0.0252577)
(-0.149067 -1.32667e-20 0.0259466)
(-0.140257 1.34725e-20 0.0267004)
(-0.133485 -1.34607e-20 0.0272357)
(-0.127546 -2.67564e-20 0.027145)
(-0.120823 0 0.0262638)
(-0.112393 3.01075e-22 0.0247401)
(-0.102358 -2.32656e-20 0.022851)
(-0.0914655 -2.17804e-20 0.0208244)
(-0.0805854 0 0.0187896)
(-0.0703556 0 0.0168045)
(-0.0610757 -1.57082e-20 0.0148922)
(-0.0527767 0 0.0130655)
(-0.0453749 -1.12831e-20 0.0113448)
(-0.0387987 1.85428e-20 0.00976441)
(-0.0330144 0 0.00835877)
(-0.0279686 -1.01838e-20 0.00714258)
(-0.0235297 0 0.00610219)
(-0.0194791 2.06629e-21 0.00519988)
(-0.0155424 -2.36785e-21 0.00438219)
(-0.0114338 -8.86438e-21 0.00358964)
(-0.00691348 -7.66058e-21 0.00276852)
(-0.00184323 1.04577e-20 0.00188)
(0.00378306 5.15914e-20 0.000903307)
(0.00984683 6.1494e-20 -0.000165664)
(0.0161309 0 -0.00131498)
(0.022349 0 -0.00251651)
(0.0281679 4.26756e-22 -0.00372507)
(0.0332282 0 -0.00487896)
(0.0371609 -5.208e-20 -0.00590139)
(0.0396102 0 -0.00670624)
(0.040271 -1.16666e-19 -0.00720964)
(0.0389392 0 -0.00734368)
(0.0355562 -1.24311e-19 -0.00706961)
(0.0302168 0 -0.00637979)
(0.0231556 1.24965e-19 -0.00529892)
(0.0146849 0 -0.00387162)
(0.00517619 0 -0.00216461)
(-0.00501688 -1.09818e-19 -0.000247834)
(-0.0155269 0 0.00179502)
(-0.026077 0 0.00389748)
(-0.0363746 0 0.00598333)
(-0.0462607 -1.26494e-19 0.00801038)
(-0.0554886 -1.95001e-19 0.00991556)
(-0.0640006 0 0.0116869)
(-0.0715536 0 0.0132693)
(-0.0781881 5.25701e-21 0.0146777)
(-0.0835997 -2.50086e-20 0.0158454)
(-0.0879436 0 0.016811)
(-0.0908389 0 0.0174873)
(-0.0926768 0 0.0179568)
(-0.0930329 0 0.0181159)
(-0.0926835 -2.60684e-19 0.0181225)
(-0.0911227 2.75091e-19 0.017852)
(-0.0895677 -5.73513e-19 0.0175575)
(-0.0872452 0 0.0170642)
(-0.0857668 0 0.0167191)
(-0.0839026 0 0.0162616)
(-0.0836809 -3.33988e-22 0.0161345)
(-0.0833183 -4.33112e-19 0.0159631)
(-0.0852382 -3.95592e-19 0.016275)
(-0.0870176 6.71493e-19 0.0165571)
(-0.0913231 -4.92433e-22 0.0173848)
(-0.0951609 -2.43768e-19 0.0181225)
(-0.101139 -2.21128e-19 0.0193279)
(-0.106079 0 0.0203372)
(-0.112232 0 0.0215939)
(-0.116807 0 0.0225606)
(-0.121738 2.01641e-19 0.0235315)
(-0.125268 0 0.0243398)
(-0.128689 0 0.0249897)
(-0.131962 1.6635e-19 0.0258)
(-0.134088 -1.21641e-19 0.0261293)
(-0.13908 0 0.0270336)
(-0.139321 0 0.0269124)
(-0.1485 0 0.0283431)
(-0.144543 -1.67946e-18 0.0279219)
(-0.160591 1.09106e-21 0.0302657)
(-0.14872 -5.99238e-20 0.0289447)
(-0.172165 1.40562e-18 0.0321079)
(-0.154642 4.25155e-18 0.0295096)
(-0.177047 -4.43406e-18 0.0336149)
(-0.154062 1.11581e-17 0.030304)
(-0.18203 0 0.0333092)
(-0.140149 0 0.0281556)
(-0.176764 0 0.0317079)
(-0.149816 0 0.0282164)
(-0.150939 -3.92894e-17 0.0325061)
(-0.146261 0 0.0274164)
(-0.013558 0 0.00637648)
(-0.867048 -4.19663e-17 0.157478)
(1.45571 -2.61529e-17 -0.286767)
(-0.717181 9.45646e-17 0.175011)
(-3.9343 9.07803e-17 0.678037)
(9.03145 0 -1.75953)
(-5.23615 0 1.20469)
(-8.61089 0 1.48575)
(16.8515 -1.6688e-16 -3.2927)
(-9.31338 -1.65144e-16 2.17342)
(-16.5799 0 2.90206)
(33.2835 4.36219e-16 -6.66436)
(8.93439 -1.92592e-16 -1.26412)
(-41.4508 6.83793e-16 8.10187)
(-3.17237 0 0.196987)
(29.5069 0 -5.79352)
(7.10195 2.32411e-16 -1.10528)
(-14.2036 0 2.88677)
(-15.5877 2.40288e-16 2.97471)
(-9.06811 -2.50127e-16 1.64638)
(-0.879418 0 0.152079)
(-0.13022 0 0.0722464)
(-0.153221 0 0.0510649)
(-0.186891 4.21479e-22 0.0231034)
(-0.213359 0 0.0114796)
(-0.223586 0 0.0103878)
(-0.225206 -3.86345e-21 0.0127298)
(-0.222899 -4.47331e-21 0.0154096)
(-0.217575 0 0.017536)
(-0.210003 -3.22435e-22 0.0199835)
(-0.200778 -1.15634e-20 0.0226527)
(-0.191156 2.4018e-20 0.0252988)
(-0.182555 1.257e-20 0.0282157)
(-0.176243 -2.11226e-22 0.0314429)
(-0.172287 1.2755e-20 0.0342323)
(-0.169069 1.25654e-20 0.0357218)
(-0.164395 -1.20371e-20 0.035725)
(-0.157023 2.33652e-20 0.0346945)
(-0.147136 2.20473e-20 0.0331938)
(-0.135784 0 0.0315538)
(-0.124117 0 0.0298661)
(-0.112927 -1.68478e-20 0.0281089)
(-0.102559 -1.49157e-20 0.0262459)
(-0.0930384 0 0.0242779)
(-0.0842883 0 0.0222641)
(-0.0762859 -1.75703e-20 0.0203065)
(-0.0690793 0 0.0185016)
(-0.0626907 1.95461e-20 0.0168996)
(-0.0570247 -6.20348e-21 0.0155003)
(-0.0518535 0 0.0142703)
(-0.0468643 9.03203e-22 0.0131588)
(-0.0417246 3.98942e-21 0.0121097)
(-0.0361542 0 0.0110744)
(-0.0299863 -9.2583e-21 0.0100167)
(-0.0231987 -2.4106e-20 0.00890764)
(-0.0158994 -4.89529e-22 0.00771964)
(-0.00829249 0 0.00642874)
(-0.000644478 0 0.00502203)
(0.00673075 4.16049e-20 0.00350778)
(0.0134803 0 0.00192383)
(0.0192137 0 0.00034211)
(0.0235228 0 -0.0011366)
(0.026027 0 -0.00240067)
(0.0264387 0 -0.00334652)
(0.0246238 0 -0.00389822)
(0.0206115 0 -0.00400685)
(0.0145844 -1.17331e-19 -0.00365867)
(0.00680487 1.14753e-19 -0.00285843)
(-0.00238818 0 -0.00164814)
(-0.0126738 1.03898e-19 -7.52536e-05)
(-0.0236802 0 0.00177467)
(-0.0351372 0 0.00384099)
(-0.0467014 -1.46302e-19 0.0060237)
(-0.0582032 0 0.00828222)
(-0.0693022 9.26106e-20 0.0105178)
(-0.0799503 -6.39617e-20 0.0127359)
(-0.0897872 0 0.0148402)
(-0.0989173 -4.96892e-21 0.0168827)
(-0.106874 0 0.0187322)
(-0.113942 0 0.02048)
(-0.119496 0 0.0219348)
(-0.12416 1.85546e-19 0.0232575)
(-0.127155 2.17087e-19 0.0241962)
(-0.129652 1.2639e-21 0.0250378)
(-0.130643 -5.18474e-19 0.0254655)
(-0.13196 8.224e-22 0.0259363)
(-0.132103 0 0.0260271)
(-0.133571 0 0.0263793)
(-0.134126 -4.88283e-19 0.0264112)
(-0.137025 3.47528e-22 0.0269561)
(-0.139139 0 0.0272208)
(-0.144485 0 0.0282126)
(-0.148895 -3.16823e-19 0.0288931)
(-0.156981 -3.67705e-22 0.0304167)
(-0.163663 -4.26838e-22 0.0315492)
(-0.173741 0 0.0335145)
(-0.181847 0 0.0350348)
(-0.192337 -2.96479e-19 0.0372015)
(-0.200475 2.02617e-19 0.0388994)
(-0.209709 0 0.0408862)
(-0.217263 0 0.0425809)
(-0.22451 0 0.044085)
(-0.232445 0 0.0458519)
(-0.237483 0 0.0466896)
(-0.248033 0 0.0487879)
(-0.249737 0 0.0487232)
(-0.26559 0 0.0516255)
(-0.261096 1.57937e-18 0.0505503)
(-0.284909 -1.84823e-19 0.0546361)
(-0.270041 5.63228e-20 0.0520226)
(-0.301944 -1.32083e-18 0.0573275)
(-0.279077 -4.00269e-18 0.0531156)
(-0.310029 4.16488e-18 0.0587291)
(-0.27944 -5.24196e-18 0.0540927)
(-0.314543 0 0.0588328)
(-0.26501 0 0.0517492)
(-0.301108 0 0.0559158)
(-0.274277 0 0.052423)
(-0.268566 3.68599e-17 0.0510015)
(-0.255769 0 0.0490847)
(-0.0627633 0 0.0259798)
(-1.36048 3.93488e-17 0.235461)
(2.32527 0 -0.460742)
(-1.44868 -4.43021e-17 0.400045)
(-5.75162 -8.50714e-17 0.863203)
(14.0414 0 -2.68585)
(-9.37446 0 2.37153)
(-12.2344 0 1.80235)
(26.4743 -1.56158e-16 -5.14255)
(-17.1027 0 4.21235)
(-23.4273 1.45051e-16 3.48921)
(53.1514 3.12247e-19 -10.8111)
(9.70294 1.80246e-16 -0.295551)
(-65.2904 -6.39955e-16 12.7541)
(-1.28954 0 -1.11251)
(47.0238 3.49713e-16 -9.26927)
(8.40782 -2.17393e-16 -0.739477)
(-23.7119 1.69446e-16 5.0004)
(-24.8678 0 4.65434)
(-14.2324 2.33877e-16 2.43433)
(-1.33549 0 0.141404)
(-0.118189 0 0.0600722)
(-0.124097 0 0.0525836)
(-0.14116 -3.98493e-22 0.0305554)
(-0.162932 0 0.0148524)
(-0.182011 2.61372e-21 0.00725502)
(-0.195983 -6.7795e-21 0.00462368)
(-0.204683 0 0.0042714)
(-0.207225 8.96497e-21 0.00565968)
(-0.204382 -9.98188e-21 0.00935774)
(-0.198451 -1.03857e-20 0.0142432)
(-0.191688 -1.1221e-20 0.0192595)
(-0.185712 1.14526e-20 0.0246936)
(-0.181953 -1.18731e-20 0.0306427)
(-0.180886 2.33937e-20 0.0358711)
(-0.180997 0 0.0389568)
(-0.17963 2.26009e-20 0.0397146)
(-0.174988 0 0.039058)
(-0.167074 0 0.0379741)
(-0.157101 0 0.0369242)
(-0.146467 -1.7497e-20 0.0359136)
(-0.136129 1.14538e-22 0.0347766)
(-0.126488 7.1474e-23 0.0333718)
(-0.117553 -1.21835e-20 0.0316687)
(-0.10922 0 0.0297634)
(-0.101473 0 0.027826)
(-0.0944076 0 0.0260067)
(-0.0881055 -1.89031e-20 0.0243743)
(-0.0825088 -2.21748e-22 0.0229233)
(-0.0773882 0 0.0216132)
(-0.0724055 0 0.0203948)
(-0.0672052 0 0.0192239)
(-0.0615 0 0.0180718)
(-0.0551299 1.72322e-20 0.0169217)
(-0.0480877 0 0.0157528)
(-0.040497 -2.67943e-20 0.0145287)
(-0.0325707 0 0.0132021)
(-0.02457 0 0.0117298)
(-0.0167945 -3.86098e-20 0.0100923)
(-0.00958384 0 0.00830985)
(-0.00333034 0 0.00645098)
(0.00153981 4.87638e-20 0.00462554)
(0.00461701 -1.02768e-19 0.00295988)
(0.00558539 0 0.00157479)
(0.00428859 -1.09664e-19 0.000563803)
(0.000737577 0 -2.31512e-07)
(-0.00490085 2.21164e-19 -7.81293e-05)
(-0.0123891 -5.2759e-22 0.000356473)
(-0.0214081 0 0.00128156)
(-0.031668 0 0.00267043)
(-0.0428052 -8.93811e-20 0.00443665)
(-0.0545773 -1.59513e-19 0.00652761)
(-0.0666226 2.75859e-19 0.00882251)
(-0.0787985 0 0.0112856)
(-0.090717 8.7782e-20 0.0137858)
(-0.102383 6.03775e-20 0.0163488)
(-0.113363 3.36497e-20 0.0188385)
(-0.123861 6.17687e-21 0.0213455)
(-0.133285 0 0.0236756)
(-0.142074 0 0.0259777)
(-0.149391 -1.32583e-19 0.0279636)
(-0.156107 -3.48097e-19 0.0298829)
(-0.161113 -2.0475e-19 0.0313464)
(-0.165978 1.71173e-21 0.0327816)
(-0.169195 2.43943e-19 0.0336867)
(-0.173206 2.54331e-19 0.0347306)
(-0.175768 0 0.035242)
(-0.180264 0 0.0361625)
(-0.183412 4.60148e-19 0.0365851)
(-0.189707 8.67098e-19 0.0377417)
(-0.194608 0 0.0384103)
(-0.203766 3.51709e-19 0.0400939)
(-0.211166 2.98592e-19 0.0412084)
(-0.223462 2.68829e-19 0.0435124)
(-0.23333 4.33919e-19 0.0451287)
(-0.247956 0 0.0479835)
(-0.259527 0 0.0501042)
(-0.274827 2.78994e-19 0.0532858)
(-0.2868 -3.82624e-19 0.0557454)
(-0.300901 -1.81164e-19 0.0587927)
(-0.312777 0 0.0613779)
(-0.324591 0 0.0637777)
(-0.337567 0 0.0665597)
(-0.34646 0 0.0679766)
(-0.363053 0 0.071339)
(-0.367309 0 0.0714481)
(-0.390421 -5.68537e-19 0.075898)
(-0.386465 -7.46558e-22 0.0744509)
(-0.418772 1.72761e-19 0.0803048)
(-0.401767 0 0.0769323)
(-0.443198 -1.24378e-18 0.084067)
(-0.415376 1.88103e-18 0.0789767)
(-0.456326 0 0.0860392)
(-0.417871 -4.92954e-18 0.0804287)
(-0.462257 1.36639e-17 0.0862921)
(-0.40341 0 0.0787677)
(-0.442763 0 0.0815944)
(-0.412409 0 0.0801894)
(-0.40224 3.46092e-17 0.0737177)
(-0.377152 0 0.0715549)
(-0.142297 0 0.0532885)
(-1.78644 3.68519e-17 0.292745)
(3.08509 2.2917e-17 -0.614253)
(-2.30801 0 0.673851)
(-7.03355 0 0.889551)
(18.2215 0 -3.45809)
(-13.8156 0 3.59296)
(-14.414 0 1.7167)
(34.7975 1.58554e-19 -6.73528)
(-25.5097 0 6.59664)
(-27.2886 -1.35734e-16 3.28652)
(70.679 -1.91483e-16 -14.6466)
(6.95182 0 1.71139)
(-85.722 1.08553e-19 16.8118)
(2.94767 0 -3.2798)
(62.4591 2.26371e-20 -12.3512)
(7.19878 0 0.313754)
(-32.9399 -1.58427e-16 7.17036)
(-33.1767 0 6.11187)
(-18.7029 2.18545e-16 3.03096)
(-1.60413 0 0.0365581)
(-0.115923 0 0.0466019)
(-0.113158 0 0.0474627)
(-0.117515 0 0.0339795)
(-0.129298 0 0.0192165)
(-0.146429 -2.46719e-21 0.00952289)
(-0.16406 3.23416e-23 0.00328632)
(-0.178506 0 -0.00122704)
(-0.187035 -8.46182e-21 -0.00243739)
(-0.189261 0 0.000966861)
(-0.187357 1.9385e-20 0.00707648)
(-0.183847 0 0.0137075)
(-0.180209 -1.0812e-20 0.0209347)
(-0.177867 0 0.0291134)
(-0.178108 -2.20874e-20 0.0365859)
(-0.180305 1.07046e-20 0.0410939)
(-0.181761 -2.10043e-20 0.0422308)
(-0.179946 2.00152e-20 0.0414463)
(-0.174295 1.89756e-20 0.0403479)
(-0.165952 0 0.0396323)
(-0.156522 1.65219e-20 0.0392069)
(-0.147192 1.49395e-20 0.0387066)
(-0.138493 2.64043e-20 0.0378366)
(-0.130455 1.15045e-20 0.0365075)
(-0.122931 0 0.0348431)
(-0.115868 0 0.033082)
(-0.109372 0 0.0314256)
(-0.103582 9.01051e-21 0.0299492)
(-0.0984933 5.74877e-21 0.0286252)
(-0.0938923 0 0.0273917)
(-0.0894171 0 0.0261954)
(-0.084682 2.78614e-21 0.0250078)
(-0.0793876 0 0.0238296)
(-0.0733791 -2.44834e-22 0.0226737)
(-0.066662 -2.00611e-20 0.0215376)
(-0.0593729 2.4364e-20 0.0203843)
(-0.0517363 0 0.0191496)
(-0.0440154 0 0.0177651)
(-0.0365021 3.64407e-20 0.0161865)
(-0.0295256 0 0.014417)
(-0.0234787 0 0.0125182)
(-0.0187998 -4.60166e-20 0.0105996)
(-0.0159187 9.69728e-20 0.00878694)
(-0.0151682 0 0.00719979)
(-0.0167146 1.03466e-19 0.00593092)
(-0.0205526 0 0.00506324)
(-0.0265183 -1.04063e-19 0.00465321)
(-0.0343848 -1.0176e-19 0.00475714)
(-0.0438389 0 0.00537662)
(-0.054609 -9.13117e-20 0.0065146)
(-0.0663288 8.42913e-20 0.00809417)
(-0.078776 3.00093e-19 0.0100839)
(-0.0915678 -1.29847e-19 0.0123525)
(-0.104592 1.06552e-19 0.0148805)
(-0.117418 -1.52218e-22 0.0175101)
(-0.130115 0 0.0202943)
(-0.142186 -3.17162e-20 0.023056)
(-0.153942 -5.82134e-21 0.0259284)
(-0.164673 -1.77254e-20 0.0286508)
(-0.174984 4.13174e-20 0.0314379)
(-0.183832 1.24913e-19 0.0339031)
(-0.192351 1.63041e-19 0.0363998)
(-0.199104 -1.8927e-19 0.0383983)
(-0.206079 2.15932e-19 0.0404825)
(-0.211266 0 0.0419499)
(-0.21774 0 0.0436933)
(-0.222507 2.33714e-19 0.0447608)
(-0.229868 0 0.0464102)
(-0.235468 0 0.0473638)
(-0.245097 -4.07598e-19 0.0492827)
(-0.252737 0 0.0504614)
(-0.265755 -3.30905e-19 0.0529512)
(-0.276188 -5.61624e-19 0.0545573)
(-0.292866 0 0.0577202)
(-0.306055 -2.04233e-19 0.0598342)
(-0.325543 0 0.063632)
(-0.340793 0 0.0663307)
(-0.361362 -2.64679e-19 0.0705653)
(-0.377449 1.80448e-19 0.0737528)
(-0.397023 -1.13248e-21 0.0779287)
(-0.413545 0 0.0814282)
(-0.430684 0 0.08489)
(-0.449057 0 0.0888132)
(-0.462706 1.00473e-19 0.091046)
(-0.485724 2.16817e-19 0.0958347)
(-0.493538 0 0.0963396)
(-0.524329 1.06745e-18 0.1025)
(-0.521943 -6.95436e-19 0.100873)
(-0.563279 -3.23151e-19 0.108632)
(-0.545087 4.37087e-20 0.104604)
(-0.596873 2.33501e-18 0.113637)
(-0.564726 0 0.107755)
(-0.616984 0 0.116439)
(-0.570756 4.62225e-18 0.109675)
(-0.626406 -1.28102e-17 0.116866)
(-0.557265 -1.40851e-17 0.108594)
(-0.603217 0 0.110594)
(-0.566391 0 0.11119)
(-0.55495 -3.24267e-17 0.0995291)
(-0.514197 4.07252e-17 0.0961186)
(-0.254406 0 0.0918299)
(-2.15669 -3.45127e-17 0.324616)
(3.7121 -2.14592e-17 -0.737113)
(-3.24047 0 1.00872)
(-7.84805 0 0.747133)
(21.5508 0 -4.01815)
(-18.3294 0 4.96443)
(-15.3297 0 1.18293)
(41.7217 1.36612e-16 -7.96318)
(-34.0716 0 9.16206)
(-28.4981 0 2.17998)
(85.482 0 -17.9408)
(1.20819 -1.56722e-16 4.90695)
(-102.29 2.79796e-16 19.9642)
(8.86434 0 -6.1568)
(75.402 -3.0577e-16 -14.8527)
(3.67487 0 2.21067)
(-41.5803 -1.48186e-16 9.28942)
(-40.4161 0 7.29072)
(-22.4676 -2.04239e-16 3.36992)
(-1.69966 0 -0.151023)
(-0.115261 2.31866e-23 0.0370099)
(-0.113035 6.0513e-22 0.0394359)
(-0.113788 -1.13974e-21 0.0315224)
(-0.118341 -1.77712e-21 0.0199568)
(-0.129398 0 0.0112535)
(-0.143985 2.96112e-21 0.00493449)
(-0.158181 0 -0.0010876)
(-0.168735 -7.58234e-21 -0.00481638)
(-0.174235 -8.26356e-21 -0.00291145)
(-0.175894 -1.78676e-20 0.00322969)
(-0.17567 9.35067e-21 0.0104031)
(-0.174368 -9.78649e-21 0.0182702)
(-0.172761 0 0.027803)
(-0.172741 0 0.037307)
(-0.175245 -1.00921e-20 0.0434066)
(-0.178396 1.74356e-22 0.0449287)
(-0.179139 -3.27848e-22 0.0437032)
(-0.175972 -2.90136e-22 0.0421645)
(-0.169543 0 0.0414514)
(-0.161472 0 0.0414312)
(-0.15318 0 0.0415063)
(-0.145421 -2.46709e-20 0.041175)
(-0.138329 -1.06949e-20 0.0402458)
(-0.131724 0 0.0388508)
(-0.125473 0 0.0373004)
(-0.119647 -1.17721e-20 0.0358585)
(-0.114426 0 0.0346095)
(-0.109892 0 0.0334943)
(-0.105892 0 0.0324156)
(-0.102062 0 0.0313065)
(-0.0979756 -1.83909e-22 0.0301532)
(-0.0933054 0 0.0289901)
(-0.0878917 -2.01068e-22 0.0278665)
(-0.081745 1.89106e-20 0.0268017)
(-0.0750081 -3.94207e-22 0.0257605)
(-0.0679151 0 0.0246643)
(-0.0607366 0 0.0234217)
(-0.0537629 0 0.021966)
(-0.0473115 0 0.0202854)
(-0.0417682 0 0.0184358)
(-0.0375761 0 0.0165253)
(-0.03518 0 0.0146743)
(-0.0349279 -9.39768e-20 0.0129937)
(-0.0369962 -9.64491e-20 0.0115673)
(-0.0413854 0 0.010481)
(-0.0479343 -9.70165e-20 0.00980348)
(-0.0564253 0 0.00961869)
(-0.0665494 0 0.00995062)
(-0.0780517 1.71545e-19 0.0108338)
(-0.0905603 0 0.0122026)
(-0.103873 -1.40959e-19 0.0140527)
(-0.117583 0 0.0162466)
(-0.131611 -2.00207e-19 0.0187894)
(-0.145487 -2.66786e-22 0.0215003)
(-0.159345 0 0.0244678)
(-0.172619 0 0.027473)
(-0.185737 0 0.0306974)
(-0.19786 3.28676e-20 0.0338075)
(-0.209772 -7.71255e-20 0.0370908)
(-0.220214 -1.14392e-19 0.0400531)
(-0.2306 -1.50049e-19 0.0431629)
(-0.239153 3.54467e-19 0.0457367)
(-0.248303 1.99832e-19 0.0485301)
(-0.255512 0 0.0506197)
(-0.264526 0 0.0531415)
(-0.271556 -1.26616e-21 0.0548341)
(-0.281887 0 0.0572987)
(-0.290022 0 0.0588486)
(-0.303132 -3.80713e-19 0.0616125)
(-0.313621 0 0.0633523)
(-0.330704 0 0.0667226)
(-0.344317 5.27328e-19 0.0688561)
(-0.365662 -2.3784e-19 0.0729509)
(-0.382371 0 0.0755914)
(-0.407119 0 0.0804148)
(-0.426306 0 0.0837168)
(-0.452669 2.48574e-19 0.0890955)
(-0.473187 0 0.0930312)
(-0.498908 3.2286e-19 0.0984413)
(-0.520447 -1.22189e-19 0.102886)
(-0.543751 0 0.107554)
(-0.567934 0 0.112682)
(-0.587333 -9.4282e-20 0.115909)
(-0.617214 4.49461e-22 0.122205)
(-0.629699 -2.75395e-19 0.12329)
(-0.668643 -5.00659e-19 0.13126)
(-0.668994 -6.49122e-19 0.129644)
(-0.719944 1.51002e-19 0.139432)
(-0.701699 -4.09809e-20 0.134912)
(-0.764693 8.56218e-22 0.146017)
(-0.729141 0 0.13939)
(-0.794061 3.43993e-18 0.149799)
(-0.740461 0 0.142217)
(-0.809451 0 0.1508)
(-0.729517 1.31951e-17 0.141766)
(-0.785529 0 0.143425)
(-0.739888 0 0.145693)
(-0.730945 0 0.129093)
(-0.672463 -3.81315e-17 0.124286)
(-0.403305 0 0.14013)
(-2.48485 -3.22096e-17 0.337429)
(4.18603 0 -0.823782)
(-4.20231 0 1.36917)
(-8.2809 0 0.455017)
(24.0436 0 -4.36593)
(-22.7077 0 6.4035)
(-15.1976 -1.33117e-16 0.259085)
(47.1572 1.27242e-16 -8.80978)
(-42.3065 1.265e-16 11.8596)
(-27.5312 0 0.290286)
(97.3047 0 -20.6374)
(-6.94018 2.92574e-16 9.00557)
(-114.642 0 22.1731)
(15.6261 -3.53338e-16 -10.0168)
(85.4954 0 -16.6938)
(-1.92302 -1.77151e-16 4.7374)
(-49.3289 1.38478e-16 11.3048)
(-46.5242 0 8.18713)
(-25.5225 -1.90529e-16 3.47537)
(-1.64385 0 -0.420316)
(-0.115111 -2.18131e-23 0.0287933)
(-0.115881 -1.24072e-21 0.0302081)
(-0.117913 1.07356e-21 0.0255024)
(-0.119641 -5.34148e-23 0.0176372)
(-0.125818 -2.25381e-21 0.0113612)
(-0.135507 0 0.00666946)
(-0.146301 0 0.00137085)
(-0.155777 7.13993e-21 -0.00319146)
(-0.162254 1.53858e-20 -0.00283082)
(-0.165991 1.76522e-22 0.00269748)
(-0.168296 -8.80415e-21 0.0096203)
(-0.169257 9.21442e-21 0.0169772)
(-0.168442 -9.24994e-21 0.0266175)
(-0.167388 0 0.0376021)
(-0.16848 0 0.0455837)
(-0.171592 9.0806e-21 0.0479477)
(-0.174004 -3.45842e-20 0.0463545)
(-0.173328 -3.2841e-20 0.0440978)
(-0.169272 0 0.0430368)
(-0.163046 0 0.0431764)
(-0.15612 0 0.0437215)
(-0.149505 1.48208e-22 0.0439233)
(-0.143547 2.00275e-20 0.0434237)
(-0.138098 -8.47466e-21 0.0423174)
(-0.132916 -1.39779e-20 0.0409807)
(-0.12797 2.21254e-20 0.0397597)
(-0.123434 -8.17121e-21 0.0387672)
(-0.119491 -5.3985e-21 0.0379143)
(-0.116113 -2.74398e-21 0.0370542)
(-0.112987 0 0.0360891)
(-0.10965 -2.29987e-21 0.0350113)
(-0.105721 4.41458e-21 0.0338923)
(-0.101019 -6.69664e-21 0.0328227)
(-0.0955519 -1.70979e-20 0.0318467)
(-0.0894631 -4.21709e-20 0.0309319)
(-0.0829949 0 0.0299874)
(-0.0764347 0 0.0289013)
(-0.0700834 -3.13765e-20 0.0275862)
(-0.0642495 0 0.0260175)
(-0.0593033 3.7411e-20 0.0242479)
(-0.0556813 4.00096e-20 0.0223868)
(-0.0538397 0 0.0205502)
(-0.0541436 1.76367e-19 0.0188381)
(-0.0567836 9.07647e-20 0.0173204)
(-0.0617698 0 0.0160816)
(-0.0689447 9.12888e-20 0.0151974)
(-0.0781019 8.87669e-20 0.014776)
(-0.0889357 0 0.0148594)
(-0.101211 -1.60505e-19 0.0155119)
(-0.114549 7.34809e-20 0.0166757)
(-0.128771 1.31153e-19 0.0183757)
(-0.143446 0 0.0204677)
(-0.158535 4.87978e-22 0.022989)
(-0.173519 -1.45448e-19 0.0257364)
(-0.18861 0 0.0288445)
(-0.203162 0 0.0320504)
(-0.217726 6.09139e-21 0.0355948)
(-0.231323 -1.52164e-20 0.0390643)
(-0.244934 7.14079e-20 0.0428313)
(-0.257059 1.07532e-19 0.0462821)
(-0.269427 1.41038e-19 0.0500164)
(-0.27988 -1.65786e-19 0.053179)
(-0.29134 -3.74075e-19 0.0567198)
(-0.300687 0 0.0594674)
(-0.312405 0 0.0628317)
(-0.321832 -4.09361e-19 0.0652038)
(-0.335335 0 0.0685706)
(-0.346162 0 0.0707838)
(-0.363003 3.57572e-19 0.0744968)
(-0.376526 0 0.0768679)
(-0.397981 -2.90265e-19 0.0812314)
(-0.414993 -4.31522e-22 0.0839584)
(-0.441395 2.23287e-19 0.0891047)
(-0.46189 0 0.0923331)
(-0.492398 0 0.0983112)
(-0.51584 0 0.102271)
(-0.548627 2.34975e-19 0.108928)
(-0.573953 0 0.113658)
(-0.606602 -1.51935e-19 0.120442)
(-0.6336 2.30451e-19 0.125881)
(-0.664027 0 0.131916)
(-0.694521 0 0.138325)
(-0.720795 0 0.142736)
(-0.758084 2.47399e-22 0.150648)
(-0.776509 2.58176e-19 0.152521)
(-0.824209 -4.67774e-19 0.162447)
(-0.82867 6.08384e-19 0.161055)
(-0.88996 1.38376e-19 0.173061)
(-0.873067 0 0.168248)
(-0.948255 -1.02684e-18 0.181645)
(-0.910565 0 0.174447)
(-0.989592 -3.22206e-18 0.186787)
(-0.929492 0 0.178776)
(-1.01394 0 0.189178)
(-0.923515 0 0.178603)
(-0.993073 1.57113e-17 0.180837)
(-0.937012 -1.98053e-17 0.184614)
(-0.93496 0 0.163307)
(-0.858113 3.5619e-17 0.157217)
(-0.593195 3.80558e-17 0.199588)
(-2.78846 3.01377e-17 0.331267)
(4.49439 1.86196e-17 -0.869776)
(-5.15021 0 1.75857)
(-8.43251 0 0.0381294)
(25.7484 0 -4.50377)
(-26.7507 0 7.84194)
(-14.2828 1.24476e-16 -1.00614)
(51.0696 -3.91997e-19 -9.24605)
(-49.7796 -2.36365e-16 14.517)
(-25.0031 0 -2.2585)
(106.072 0 -22.6404)
(-16.7393 -1.3651e-16 13.9082)
(-122.74 0 23.3329)
(22.7758 3.30195e-16 -13.1358)
(92.5198 0 -17.7677)
(-9.16614 3.30889e-16 8.0153)
(-55.9421 0 13.1176)
(-51.4947 0 8.78807)
(-27.8933 1.77984e-16 3.34453)
(-1.46106 0 -0.766304)
(-0.115408 0 0.0214972)
(-0.118206 6.31068e-22 0.0220915)
(-0.122389 0 0.0192778)
(-0.123975 1.62518e-21 0.0143319)
(-0.127741 4.20939e-21 0.0104366)
(-0.133721 0 0.00781768)
(-0.140755 -2.86143e-21 0.00426561)
(-0.147937 0 0.000361125)
(-0.15386 -1.6466e-22 -1.22046e-05)
(-0.158105 1.51518e-20 0.00470859)
(-0.161597 0 0.0110226)
(-0.164191 0 0.0171913)
(-0.164468 8.70006e-21 0.0257008)
(-0.162642 0 0.0371071)
(-0.161408 0 0.046887)
(-0.162578 0 0.0507157)
(-0.164892 1.61059e-20 0.0492746)
(-0.165848 1.53006e-20 0.0463478)
(-0.164176 1.40516e-20 0.0446678)
(-0.16022 0 0.0446461)
(-0.155093 0 0.0454517)
(-0.14991 1.07293e-20 0.0461211)
(-0.145297 -9.36485e-21 0.0460697)
(-0.141254 7.97065e-21 0.045273)
(-0.137467 1.31465e-20 0.0441379)
(-0.133741 -2.06765e-20 0.0431102)
(-0.130151 3.93933e-23 0.0423647)
(-0.126935 5.07726e-21 0.041803)
(-0.124235 2.58066e-21 0.041222)
(-0.121882 0 0.0404669)
(-0.11942 0 0.0395151)
(-0.116389 -4.15161e-21 0.038473)
(-0.112553 0 0.0374809)
(-0.107908 1.60787e-20 0.0366121)
(-0.102589 1.96738e-20 0.0358381)
(-0.096842 -2.28305e-20 0.0350581)
(-0.0909764 0 0.0341431)
(-0.0853223 2.95026e-20 0.0329857)
(-0.0801886 3.21826e-20 0.0315473)
(-0.0759228 -2.61952e-22 0.0298791)
(-0.072942 -7.49734e-20 0.0280961)
(-0.0717061 0 0.0263126)
(-0.0726008 -8.26578e-20 0.0246186)
(-0.0758377 0 0.0230671)
(-0.0814423 0 0.0217378)
(-0.0892619 0 0.0207087)
(-0.0991025 -4.66776e-22 0.0201103)
(-0.11066 0 0.0199974)
(-0.123722 7.52144e-20 0.0204621)
(-0.137901 -1.37718e-19 0.0214498)
(-0.153052 -1.23247e-19 0.0230153)
(-0.168711 0 0.0250052)
(-0.184891 8.78066e-20 0.0274944)
(-0.201019 1.35974e-19 0.0302556)
(-0.217393 0 0.0334794)
(-0.233269 0 0.0368545)
(-0.249347 -5.72195e-21 0.040694)
(-0.264475 1.37404e-20 0.0444943)
(-0.279869 -3.33018e-20 0.0487303)
(-0.293747 -9.88955e-20 0.0526515)
(-0.308205 0 0.0570128)
(-0.320648 0 0.0607617)
(-0.334558 1.34625e-21 0.0650744)
(-0.34615 -1.8402e-19 0.0684953)
(-0.360749 0 0.0727516)
(-0.372705 1.91546e-19 0.0758362)
(-0.389608 0 0.0801808)
(-0.403288 0 0.083106)
(-0.42415 0 0.0878677)
(-0.440896 0 0.090929)
(-0.467084 8.51726e-22 0.0964042)
(-0.487722 -5.03851e-22 0.0997878)
(-0.519636 -2.08954e-19 0.106121)
(-0.5442 0 0.110003)
(-0.581045 -1.54604e-19 0.117288)
(-0.609085 0 0.121972)
(-0.649013 -2.20336e-19 0.13007)
(-0.679564 1.53467e-19 0.13566)
(-0.720026 -1.44022e-19 0.14399)
(-0.752986 -1.08582e-19 0.150494)
(-0.791615 0 0.158085)
(-0.829009 1.19052e-19 0.165868)
(-0.863427 0 0.171672)
(-0.908793 -1.79345e-19 0.181329)
(-0.934601 2.39598e-19 0.18421)
(-0.991819 4.38212e-19 0.196262)
(-1.00198 0 0.195323)
(-1.07453 -2.57086e-19 0.209767)
(-1.06067 0 0.204888)
(-1.14923 -9.61195e-19 0.220849)
(-1.11102 0 0.213292)
(-1.20573 -3.0058e-18 0.228039)
(-1.14058 0 0.219497)
(-1.24307 -1.04579e-17 0.230534)
(-1.14249 -1.14962e-17 0.221338)
(-1.22931 -1.47026e-17 0.223875)
(-1.16221 1.85319e-17 0.228814)
(-1.17193 0 0.203083)
(-1.07746 -6.65758e-17 0.196348)
(-0.82842 -7.11037e-17 0.269918)
(-3.08483 0 0.313472)
(4.63136 -1.74137e-17 -0.873039)
(-6.05651 0 2.15675)
(-8.40404 0 -0.464019)
(26.7359 -1.08668e-16 -4.43851)
(-30.2838 0 9.24572)
(-12.8756 0 -2.55077)
(53.4864 -1.10839e-16 -9.26747)
(-56.096 2.2049e-16 17.0694)
(-21.5967 -1.04583e-16 -5.32591)
(111.839 0 -23.914)
(-27.3546 0 19.3319)
(-126.801 0 23.4679)
(28.9086 0 -19.2435)
(96.3022 2.48852e-16 -18.0186)
(-17.6228 -1.54482e-16 11.4463)
(-61.2571 0 14.6779)
(-55.3752 0 9.10554)
(-29.6264 0 2.9895)
(-1.17808 0 -1.18262)
(-0.115768 -2.31109e-22 0.0158737)
(-0.119362 0 0.0161599)
(-0.125159 -1.09477e-21 0.0144519)
(-0.127328 0 0.011497)
(-0.130219 -1.96335e-21 0.00943917)
(-0.134204 0 0.00861153)
(-0.13863 2.68939e-21 0.00700962)
(-0.143614 -5.86251e-21 0.00438859)
(-0.148439 -1.29788e-20 0.00404606)
(-0.152316 -1.66499e-22 0.00793851)
(-0.155699 0 0.0135913)
(-0.158839 0 0.0185635)
(-0.160164 0 0.0253009)
(-0.158393 0 0.0359381)
(-0.155166 0 0.0468142)
(-0.153322 0 0.0524096)
(-0.153588 -1.44384e-20 0.0518797)
(-0.154441 1.373e-20 0.0487819)
(-0.154229 -1.3203e-20 0.046511)