/*--------------------------------*- C++ -*----------------------------------*\
| =========                 |                                                 |
| \\      /  F ield         | OpenFOAM: The Open Source CFD Toolbox           |
|  \\    /   O peration     | Version:  2412                                  |
|   \\  /    A nd           | Website:  www.openfoam.com                      |
|    \\/     M anipulation  |                                                 |
\*---------------------------------------------------------------------------*/
FoamFile
{
    version     2.0;
    format      ascii;
    arch        "LSB;label=32;scalar=64";
    class       volVectorField;
    location    "0.34";
    object      ddtCorrDdt0(U);
}
// * * * * * * * * * * * * * * * * * * * * * * * * * * * * * * * * * * * * * //

dimensions      [0 1 -2 0 0 0 0];

internalField   nonuniform List<vector> 
12600
(
(566.405 0 845.038)
(1188.59 -8.14993e-16 180.044)
(604.599 -6.84014e-16 75.3605)
(457.31 0 65.4229)
(364.644 -1.68089e-17 75.4603)
(296.63 0 85.2963)
(255.572 1.02871e-15 97.5472)
(221.803 0 104.012)
(202.054 0 119.808)
(217.318 0 139.398)
(193.63 0 103.233)
(154.564 2.39038e-15 92.0168)
(175.287 2.43038e-15 98.4628)
(150.218 0 66.7705)
(105.566 -5.11973e-15 62.9249)
(96.5418 0 56.6361)
(81.0873 1.55445e-17 47.5338)
(58.0447 0 36.2096)
(39.4824 -2.4688e-15 26.5204)
(25.9987 0 20.3379)
(6.09333 0 11.5662)
(1.29228 0 8.81782)
(-2.45689 -8.31032e-15 7.71991)
(-4.21322 7.7763e-15 1.30262)
(1.72794 3.6452e-17 -9.29906)
(-11.1331 -3.50702e-15 -15.6591)
(-0.311547 0 -15.3324)
(-3.4766 0 -17.7629)
(42.9774 0 7.52531)
(13.7492 6.25989e-15 -36.4965)
(-64.5398 1.1183e-14 -55.8289)
(-43.0494 0 -26.664)
(-20.5512 0 -11.1314)
(-10.9757 3.7855e-15 -5.80677)
(-13.1357 3.43592e-15 -4.81113)
(-8.97892 0 -2.15239)
(-2.47096 0 0.676978)
(4.84633 5.33516e-15 3.9273)
(7.51886 0 5.04773)
(9.1526 -7.70846e-18 4.85249)
(10.364 4.54186e-15 4.87505)
(3.18949 4.25838e-15 1.49459)
(2.8947 0 0.76368)
(-2.41056 3.71547e-15 -1.30209)
(-6.85764 3.4004e-15 -3.13361)
(-10.9537 -6.17047e-15 -4.76946)
(-14.5832 5.56742e-15 -6.65257)
(-20.1977 0 -9.0868)
(-21.2687 -4.11831e-15 -10.2665)
(-23.7965 3.4398e-15 -12.6281)
(-23.5768 0 -12.7128)
(-20.7659 3.09984e-17 -10.0538)
(-18.6543 -1.55358e-15 -7.77999)
(-12.5922 0 -3.5838)
(-11.1611 1.44989e-15 -1.7898)
(-8.04538 0 -0.586285)
(-5.0396 0 0.25634)
(-3.71212 -6.17109e-19 0.376383)
(-1.33432 -2.37545e-18 0.124158)
(-1.32112 4.79235e-16 -0.408561)
(0.38027 -8.54113e-16 -0.161491)
(0.0661944 1.66755e-15 -1.41184)
(-0.448877 0 -1.78259)
(0.868016 2.96727e-15 -2.41697)
(1.0946 3.41574e-15 -3.12997)
(2.06909 -8.07667e-15 -3.79714)
(4.51121 4.84543e-15 -4.52649)
(1.43256 0 -3.14907)
(-4.74479 0 0.118046)
(-14.0882 0 8.91967)
(-19.5791 0 12.4787)
(-16.9209 0 10.2377)
(35.7951 -1.18111e-14 -19.5186)
(-3.86727 1.09903e-14 0.666103)
(-14.1771 0 2.11089)
(11.1887 0 -5.62224)
(-11.6931 1.09366e-14 7.18649)
(-9.40986 9.27137e-18 2.35394)
(5.81924 2.18002e-14 -10.052)
(29.0141 0 -23.8968)
(55.0807 0 -36.4084)
(51.2306 0 -29.3418)
(27.8447 1.08181e-17 -15.4462)
(1.55932 0 5.4652)
(-32.2592 0 24.0893)
(-49.262 1.94968e-14 31.151)
(-35.9732 -1.30041e-17 23.4221)
(-23.926 0 14.9479)
(-12.8624 0 8.64753)
(-4.75135 -2.49505e-14 4.04524)
(-0.326921 -2.4361e-14 0.966441)
(4.5416 -2.19408e-14 -0.531446)
(3.48154 -2.05484e-14 1.23297)
(-1.64346 -6.49092e-19 2.38018)
(-3.03916 1.23351e-18 2.62692)
(3.81255 1.70218e-14 -1.85382)
(13.9147 0 -7.70416)
(14.4518 0 -8.14478)
(3.52722 0 -1.83569)
(-4.46843 6.532e-14 3.50556)
(-4.65007 -3.21995e-14 3.16614)
(-2.15458 2.9924e-14 2.15114)
(-1.18302 2.92729e-14 1.16696)
(0.482894 0 0.683468)
(0.943223 0 0.166351)
(1.76655 0 -0.565626)
(2.21857 4.68212e-14 -0.907638)
(2.25432 0 -1.18007)
(1.81722 -4.24322e-14 -0.753398)
(0.589488 0 -0.59904)
(-0.660746 0 0.475542)
(-1.94313 3.59864e-14 1.24313)
(-2.68778 0 1.5091)
(-2.94452 0 1.78217)
(-2.96931 0 1.43102)
(-2.44646 -5.82759e-14 1.28243)
(-2.0182 0 0.843028)
(-1.55773 5.24595e-14 0.682741)
(-0.986693 0 0.46148)
(-1.28364 -1.60345e-19 0.483925)
(794.812 2.838e-16 1312.76)
(770.512 5.74679e-16 413.197)
(596.662 -5.37535e-17 215.078)
(499.813 0 156.614)
(404.955 9.50541e-16 140.365)
(327.9 -1.05646e-15 132.724)
(282.295 -1.07304e-15 139.534)
(247.962 1.15268e-15 141.984)
(235.4 0 158.537)
(222.909 0 173.668)
(185.464 0 137.911)
(165.502 0 123.387)
(182.175 0 134.158)
(141.318 0 81.2595)
(109.24 -3.91717e-17 81.5775)
(98.7645 0 75.1898)
(80.6096 -2.67387e-15 63.1909)
(56.4286 0 49.359)
(38.0646 5.14483e-15 36.0094)
(24.0327 -4.96126e-15 27.7605)
(4.33849 0 17.1974)
(0.936531 -4.45438e-15 12.3277)
(-2.59958 4.3055e-15 13.6924)
(-7.32958 -4.01891e-15 6.52636)
(-10.7559 3.78709e-15 -21.1708)
(-23.1095 0 -32.0798)
(-10.9231 -3.23514e-15 -31.7055)
(-12.8164 0 -42.5269)
(38.8419 0 7.76457)
(-42.1311 0 -108.4)
(-94.3767 -5.70327e-15 -110.389)
(-41.0074 0 -38.9538)
(-18.1147 0 -13.6059)
(-11.2771 0 -7.65616)
(-13.5926 0 -5.90973)
(-8.18257 0 -1.80197)
(-1.10837 0 1.57453)
(6.55297 -5.48923e-15 5.63546)
(9.19492 0 7.44249)
(10.4055 -9.73098e-15 6.53702)
(11.0625 -9.31003e-15 6.22053)
(3.42193 -4.34159e-15 2.0824)
(3.00749 0 0.707108)
(-2.77485 0 -1.94962)
(-7.27021 -6.93537e-15 -3.96432)
(-11.754 6.30045e-15 -6.1559)
(-15.8595 -5.60474e-15 -8.6604)
(-22.0274 0 -11.9877)
(-23.8951 4.09721e-15 -14.3023)
(-27.7078 0 -18.9275)
(-27.8553 0 -20.3119)
(-23.0832 2.11919e-15 -14.3333)
(-19.4369 0 -9.30944)
(-13.1198 0 -4.03844)
(-11.9837 -1.4649e-15 -1.51556)
(-9.13207 0 0.0950218)
(-6.53634 0 1.16812)
(-5.35067 2.75649e-19 1.56607)
(-2.85114 4.5285e-16 1.05133)
(-2.06802 6.77005e-18 0.01851)
(0.700188 0 -0.490341)
(0.868519 -1.75804e-15 -3.56513)
(2.51754 -2.45198e-15 -3.85264)
(5.92645 0 -5.81821)
(9.82867 -6.82045e-15 -8.49572)
(14.1806 -8.44491e-18 -11.0366)
(20.4233 0 -13.6644)
(9.66397 5.2426e-15 -7.61549)
(-8.7174 0 3.70697)
(-47.7162 0 29.2068)
(-59.7278 0 37.1844)
(-65.3303 0 34.5693)
(103.132 2.32701e-14 -59.8517)
(3.39551 -1.08106e-14 -0.457632)
(-35.0374 0 12.3192)
(27.0814 0 -14.4429)
(-34.3153 1.07004e-14 21.3687)
(-18.5513 1.12046e-17 6.0709)
(43.8082 3.73112e-17 -34.308)
(121.33 0 -79.8024)
(187.538 0 -114.535)
(152.406 0 -87.6258)
(68.2148 1.28899e-17 -37.7102)
(-14.9286 -2.36186e-14 22.8526)
(-111.983 1.99452e-14 73.87)
(-153.828 -1.88383e-14 92.9845)
(-113.902 -1.5459e-17 68.4014)
(-75.1279 -1.43923e-14 44.1341)
(-43.5693 0 25.9193)
(-18.679 2.39818e-14 11.7468)
(-4.39432 0 2.94305)
(8.07874 2.10372e-14 -2.55349)
(3.28901 0 1.8667)
(-10.0544 -3.59015e-14 7.46158)
(-10.2502 -1.71543e-14 6.80058)
(14.4624 0 -8.58781)
(45.1587 0 -26.0241)
(42.7907 -3.27526e-14 -24.525)
(6.79369 3.28099e-14 -3.32596)
(-15.9421 -6.21285e-14 10.5274)
(-15.2296 3.0581e-14 9.34705)
(-8.75134 -2.83945e-14 5.97758)
(-4.72749 0 3.20236)
(-0.918935 2.6119e-14 1.53516)
(1.29827 0 -0.0128029)
(3.95462 0 -1.90717)
(5.3045 -4.42551e-14 -2.76585)
(5.81564 0 -3.30653)
(3.7889 -5.46783e-18 -1.94667)
(0.503469 3.76764e-14 -1.04122)
(-3.51748 0 2.17141)
(-7.06661 0 4.22237)
(-8.86124 0 5.09514)
(-9.62036 3.03871e-14 5.64588)
(-8.67886 -5.7294e-14 4.71923)
(-7.36472 5.47845e-14 4.10503)
(-5.55558 0 2.85804)
(-4.4676 -4.92726e-14 2.3325)
(-3.07946 0 1.64906)
(-3.5407 8.66066e-14 1.79168)
(418.779 -6.25827e-16 800.274)
(574.875 3.7211e-16 489.403)
(558.373 1.53601e-15 303.007)
(473.249 0 201.309)
(375.62 9.82341e-16 148.709)
(299.124 -3.59122e-17 115.51)
(244.36 0 92.4736)
(205.614 -1.09399e-15 79.798)
(178.548 0 71.0835)
(150.442 -1.18689e-15 59.8753)
(134.857 0 59.7818)
(122.483 0 53.9499)
(128.062 0 58.2112)
(98.3149 0 24.5618)
(78.521 2.58175e-15 29.2479)
(68.219 0 27.9434)
(52.8283 0 22.2151)
(34.4146 0 18.4464)
(21.318 -2.44418e-15 13.3921)
(10.2979 1.29667e-19 8.79398)
(-3.68294 0 7.59784)
(-5.21546 1.90578e-17 3.02792)
(-7.40418 0 5.6459)
(-13.6226 3.69393e-15 5.79438)
(-14.0975 0 -15.0768)
(-17.9959 0 -20.241)
(-6.79588 3.06864e-15 -19.9448)
(-8.69041 0 -41.909)
(16.6069 0 -9.83941)
(-82.3174 5.17714e-15 -153.289)
(-66.5417 0 -85.3467)
(-16.7085 0 -16.7869)
(-10.4911 0 -3.74592)
(-8.65723 0 -3.3043)
(-10.8216 -3.27441e-15 -1.72562)
(-6.48083 0 0.427539)
(-0.764733 0 1.41073)
(5.55638 5.17952e-15 2.94706)
(7.16417 0 3.29008)
(8.1092 9.20244e-15 2.10798)
(8.5394 3.70311e-18 1.29683)
(3.07958 4.1104e-15 0.977833)
(2.5854 0 -0.610686)
(-2.0085 0 -1.38211)
(-5.45194 3.27389e-15 -1.58638)
(-9.32834 0 -2.53196)
(-12.6502 5.30186e-15 -3.51057)
(-17.7642 0 -4.69665)
(-19.5355 -2.27372e-17 -6.28707)
(-22.6188 0 -9.3469)
(-22.5197 0 -11.1513)
(-18.0796 0 -6.19353)
(-15.3176 1.42237e-15 -1.8785)
(-11.6515 0 -0.385041)
(-11.6348 0 0.881853)
(-9.61441 0 1.784)
(-7.86764 0 2.13572)
(-6.76467 1.20276e-16 2.85374)
(-4.16306 0 2.16971)
(-2.49601 4.86367e-19 1.08042)
(0.94769 0 -0.655554)
(2.63333 8.57644e-16 -3.98797)
(6.01092 2.31185e-15 -4.97452)
(11.4854 0 -8.19287)
(18.7868 6.44289e-15 -13.0446)
(26.1409 3.79765e-15 -17.4469)
(35.5396 0 -21.4755)
(17.4917 -4.93725e-15 -9.46348)
(-11.3043 0 10.0224)
(-78.2232 0 48.5617)
(-86.8621 0 53.8066)
(-124.632 0 61.2913)
(158.004 6.18298e-18 -93.1429)
(21.7285 1.01664e-14 -5.913)
(-52.8345 0 24.2149)
(36.4083 0 -17.4397)
(-52.1887 -3.10566e-18 32.1265)
(-22.7763 -1.97608e-14 6.50851)
(92.4684 -1.00402e-14 -65.6897)
(221.279 0 -141.172)
(311.253 0 -184.186)
(233.329 0 -127.604)
(86.2465 -4.60852e-14 -40.7386)
(-43.7998 6.75267e-17 46.1703)
(-187.463 -1.87106e-14 119.134)
(-245.737 0 142.822)
(-181.481 -1.52666e-14 102.119)
(-121.119 1.34929e-14 66.777)
(-72.6066 0 40.0242)
(-31.6817 0 17.4976)
(-8.2136 2.19139e-14 4.34348)
(10.6369 0 -4.75345)
(1.71004 1.84221e-14 1.69927)
(-17.7145 1.04154e-21 12.0121)
(-14.664 1.60633e-14 8.2999)
(27.5176 -1.52524e-14 -18.4163)
(74.5487 0 -44.4184)
(66.1345 3.06512e-14 -36.4734)
(7.08129 -3.07003e-14 -1.63984)
(-27.1937 5.81472e-14 16.9735)
(-24.8332 0 14.3322)
(-14.8664 -2.65647e-14 8.77529)
(-8.01397 0 4.63589)
(-2.24887 -2.44231e-14 1.83082)
(1.56244 2.31303e-14 -0.59662)
(5.90353 0 -3.17744)
(7.76437 4.13674e-14 -4.21148)
(8.33667 0 -4.63237)
(4.42926 7.48654e-14 -2.16284)
(-0.587723 -3.52074e-14 0.210773)
(-7.42063 0 4.64322)
(-12.9129 0 7.58079)
(-15.2863 0 8.84784)
(-16.2548 1.845e-18 9.32902)
(-14.3245 5.3517e-14 7.9494)
(-12.1566 -5.11768e-14 6.77723)
(-9.18468 0 4.92445)
(-7.54396 -4.60192e-14 4.08674)
(-5.47019 0 3.01728)
(-6.16655 -5.79716e-19 3.36313)
(297.056 3.37912e-16 594.685)
(459.2 5.99577e-17 470.262)
(480.171 -7.66607e-16 320.974)
(430.582 9.226e-16 227.006)
(349.76 1.02941e-15 167.97)
(281.996 2.009e-15 134.898)
(229.677 0 103.986)
(193.897 0 86.9208)
(163.231 0 68.0043)
(140.586 1.12419e-15 55.6396)
(125.261 0 51.4262)
(112.357 0 45.1828)
(109.457 0 42.5423)
(87.8481 0 22.1416)
(70.8748 0 21.809)
(57.7259 2.48573e-15 17.7176)
(42.4973 -2.45011e-15 11.454)
(25.5664 0 8.84892)
(14.088 0 7.02253)
(3.72134 4.45955e-15 1.73157)
(-8.4842 -4.26362e-15 3.26802)
(-9.45721 3.98502e-15 -0.639671)
(-12.5376 -3.78308e-15 -1.97644)
(-18.4253 -3.49788e-15 0.828743)
(-10.4582 3.23563e-15 -4.82477)
(-10.1498 -3.03669e-15 -4.90925)
(-2.67748 0 -4.70366)
(0.590685 2.62396e-15 -20.9941)
(-9.17908 0 -23.4509)
(-77.6179 -4.89994e-15 -133.696)
(-27.246 0 -49.9627)
(-3.39245 0 -5.39066)
(-9.58616 0 -2.73008)
(-8.88316 3.35297e-15 -3.46162)
(-10.6056 3.09746e-15 -1.76114)
(-6.14835 0 0.526375)
(-0.558197 0 1.12702)
(5.69393 -4.89786e-15 2.63091)
(6.23847 0 1.4026)
(7.48662 -3.70697e-18 0.741109)
(7.70808 4.15798e-15 -0.813903)
(3.25299 0 0.669885)
(2.39591 0 -1.37406)
(-1.68872 0 -1.55688)
(-5.11817 0 -1.66476)
(-9.0496 5.58274e-15 -2.50125)
(-12.2796 0 -3.22975)
(-17.0173 -4.30819e-15 -3.54704)
(-18.3419 -3.63637e-15 -4.00021)
(-20.2455 0 -4.74243)
(-19.1022 0 -4.98455)
(-16.1195 0 -2.6654)
(-14.7136 -1.34194e-15 -0.104892)
(-11.9107 9.05823e-16 0.44551)
(-12.2396 1.28173e-15 1.56722)
(-10.4355 0 2.73044)
(-9.14521 2.09956e-16 2.92986)
(-8.16566 -1.08084e-16 3.85971)
(-5.62019 0 2.82568)
(-3.34063 -8.68473e-16 1.36046)
(1.09473 0 -0.970709)
(4.39753 -8.5703e-16 -4.23837)
(8.86313 -2.19421e-15 -6.94928)
(16.3817 0 -11.5975)
(26.9631 -3.03369e-15 -18.4987)
(37.1353 -3.57177e-15 -24.3706)
(49.1764 0 -28.8276)
(23.7835 0 -10.7067)
(-13.8096 0 16.3965)
(-104.675 5.45665e-15 66.3877)
(-98.2111 5.02743e-15 63.2338)
(-195.671 0 91.6904)
(196.714 -1.02942e-14 -121.503)
(48.632 -9.54938e-15 -13.4938)
(-68.3394 0 31.9024)
(39.4184 0 -17.4916)
(-64.9406 -9.43858e-15 40.7725)
(-22.7593 -4.02201e-19 -0.129739)
(148.962 0 -107.025)
(324.767 0 -207.686)
(419.172 0 -245.872)
(287.287 0 -149.82)
(79.7914 7.93195e-19 -29.2205)
(-81.4236 2.07157e-14 72.0805)
(-252.495 0 162.166)
(-319.798 0 185.275)
(-235.785 0 129.556)
(-159.995 1.26399e-14 85.8106)
(-98.8644 0 52.4973)
(-43.6474 2.10459e-14 22.4552)
(-11.8495 -2.05212e-14 5.26639)
(12.6351 1.84471e-14 -6.27657)
(0.315193 -1.72458e-14 2.84834)
(-24.0047 3.14684e-14 16.0195)
(-15.8021 -1.50331e-14 7.84589)
(42.9608 1.42721e-14 -29.61)
(101.677 0 -61.156)
(83.6939 0 -45.0992)
(4.67484 -2.87246e-14 1.81019)
(-37.2844 -2.71925e-14 23.4579)
(-33.0626 -2.67598e-14 18.7859)
(-20.0707 -1.70218e-18 11.3308)
(-10.8214 0 5.93969)
(-3.25954 0 2.14841)
(1.88047 -2.162e-14 -1.05471)
(7.47473 0 -4.22792)
(9.38514 -3.86632e-14 -5.22786)
(9.57448 0 -5.29945)
(3.58389 1.92982e-18 -1.7217)
(-3.07687 0 2.20735)
(-12.3023 -3.14296e-14 7.61256)
(-19.2077 2.96046e-14 11.3107)
(-21.8656 2.81018e-14 12.708)
(-22.6995 1.60097e-18 12.9871)
(-19.9446 0 11.123)
(-16.8592 4.77926e-14 9.39934)
(-12.9921 4.45014e-14 7.03037)
(-10.8642 4.29712e-14 5.95047)
(-8.21071 0 4.55029)
(-9.17929 -8.48349e-19 5.11455)
(235.808 0 470.663)
(357.964 5.22834e-17 404.081)
(401.355 0 305.257)
(371.779 -8.71685e-16 231.993)
(314.571 -1.85059e-15 174.907)
(258.374 -9.69616e-16 134.615)
(213.527 0 107.135)
(177.384 0 85.827)
(151.002 1.07958e-15 71.4893)
(131.136 1.10314e-15 59.4509)
(115.612 -1.12412e-15 51.1402)
(103.582 -2.29068e-15 43.9932)
(96.9401 -2.31948e-15 37.4116)
(80.1454 0 23.2777)
(64.7477 0 20.4135)
(50.0567 -4.7062e-15 15.2832)
(35.6884 -2.69545e-18 9.09032)
(20.0546 0 5.87633)
(9.2677 2.19518e-15 5.68335)
(-0.441328 4.20683e-15 0.116764)
(-11.2662 4.03086e-15 2.45274)
(-11.7291 0 0.673916)
(-15.0359 3.5762e-15 -3.48074)
(-19.4956 -3.29592e-15 1.52871)
(-10.2043 -3.05833e-15 -1.13785)
(-9.38309 1.38371e-17 -1.57112)
(-1.96423 0 0.123287)
(4.45391 -2.16967e-17 -5.85153)
(-23.1052 0 -21.4831)
(-30.5354 -3.98204e-15 -46.3784)
(3.11948 0 -19.8845)
(4.64291 0 1.51388)
(-10.3426 0 -2.69566)
(-9.13689 -3.1669e-15 -3.50534)
(-10.5103 0 -2.22079)
(-5.38291 0 1.38842)
(-0.072467 0 1.59621)
(6.08606 0 3.18279)
(5.85667 4.37246e-15 0.827911)
(7.62713 -8.19909e-15 1.01134)
(7.4145 0 -1.79606)
(3.47202 -3.66308e-15 0.540597)
(2.32463 0 -1.67874)
(-1.32582 0 -1.44517)
(-4.93341 0 -1.69275)
(-9.08861 -8.39886e-18 -2.74638)
(-12.2596 0 -3.36852)
(-16.8318 4.06218e-15 -3.29005)
(-17.9032 0 -3.0874)
(-19.229 0 -2.63397)
(-17.5402 2.14251e-15 -1.80314)
(-15.4227 0 -0.891367)
(-14.6267 0 0.99089)
(-12.3113 -2.41554e-18 1.07983)
(-12.8229 -1.20724e-15 2.15488)
(-11.1286 0 3.68257)
(-10.2404 2.27476e-18 3.7478)
(-9.44909 9.5658e-17 4.75508)
(-7.03769 0 3.35544)
(-4.34332 4.08828e-16 1.34658)
(0.99021 0 -1.57391)
(5.49612 8.0625e-16 -5.44939)
(11.5467 2.06383e-15 -9.01363)
(21.0559 0 -15.2114)
(34.7226 2.85798e-15 -24.1086)
(47.4154 2.54945e-18 -31.1597)
(61.4445 0 -35.1562)
(28.9731 0 -10.5462)
(-15.7295 0 23.5851)
(-126.142 -1.0256e-14 82.3274)
(-95.0463 -1.56367e-18 65.7802)
(-278.267 0 126)
(218.918 9.6739e-15 -144.265)
(80.497 1.79259e-14 -21.5862)
(-79.1585 0 36.9911)
(38.399 0 -14.7721)
(-73.1337 0 46.6926)
(-13.7632 -7.427e-19 -8.29779)
(212.887 0 -156.361)
(427.672 0 -276.115)
(507.406 0 -293.751)
(312.215 0 -150.871)
(54.1808 2.02521e-14 -1.66228)
(-119.179 1.93702e-14 103.4)
(-305.402 0 199.49)
(-377.412 0 217.051)
(-278.987 0 148.882)
(-192.67 -1.82972e-19 100.076)
(-122.758 0 62.6091)
(-55.2333 -1.9702e-14 26.4113)
(-15.4813 0 5.80039)
(13.8978 -1.72641e-14 -7.35633)
(-0.991994 0 4.49801)
(-28.6546 -1.47215e-14 19.042)
(-14.1193 0 5.02961)
(59.5484 0 -42.347)
(125.913 0 -75.6121)
(96.1128 0 -49.975)
(0.787686 2.68588e-14 7.2906)
(-46.2452 0 29.3941)
(-40.1706 2.50162e-14 22.3825)
(-24.6038 2.32191e-14 13.3419)
(-13.3299 0 6.92864)
(-4.15652 0 2.32891)
(2.03773 0 -1.45731)
(8.49933 0 -4.9777)
(10.0859 -3.08772e-18 -5.67236)
(9.55372 0 -5.12825)
(1.66662 -6.53537e-14 -0.0556542)
(-6.84494 0 4.71353)
(-17.8312 5.87157e-14 11.1529)
(-25.7761 -2.765e-14 15.2713)
(-28.5375 -2.62447e-14 16.626)
(-29.0109 -2.4762e-14 16.5164)
(-25.6019 0 14.245)
(-21.5934 0 11.9584)
(-17.0305 -8.31023e-14 9.22159)
(-14.4755 4.0121e-14 7.95242)
(-11.3192 3.68714e-14 6.29247)
(-12.5167 -3.52417e-14 7.07876)
(192.82 0 372.416)
(280.335 -8.80676e-16 341.319)
(325.379 0 277.505)
(310.731 0 219.295)
(272.407 0 173.721)
(228.514 0 130.246)
(191.802 0 103.152)
(160.883 -1.02256e-15 80.8514)
(139.582 -1.0186e-15 69.6664)
(119.652 -2.1003e-15 56.3086)
(105.873 2.13664e-15 48.7755)
(94.1301 2.16193e-15 42.8957)
(85.8156 2.18925e-15 35.8972)
(71.3693 0 23.8061)
(56.7864 0 18.2054)
(42.3145 4.449e-15 13.6222)
(29.5227 4.37873e-15 8.98631)
(15.2646 0 5.21484)
(4.66055 -2.07211e-15 5.45438)
(-3.92314 -3.97089e-15 0.39327)
(-13.3414 0 2.98553)
(-14.4485 -3.53753e-15 2.43081)
(-16.8469 0 -2.78466)
(-20.2325 4.68749e-18 2.67759)
(-11.0206 2.86458e-15 2.205)
(-9.62853 1.03158e-17 1.01888)
(-1.78613 0 4.38605)
(2.2663 -2.31919e-15 -1.61695)
(-15.9398 4.2947e-15 -10.5809)
(6.45005 7.53747e-15 16.1108)
(13.2591 3.59392e-15 1.36799)
(2.57794 0 -0.421574)
(-12.5641 3.1977e-15 -3.46233)
(-9.72198 0 -3.62387)
(-10.0777 0 -1.89641)
(-4.40878 0 2.59507)
(0.0578496 0 1.71975)
(6.14138 0 3.59641)
(5.84329 2.38064e-18 1.16879)
(7.99229 3.86297e-15 2.03548)
(7.23153 0 -2.13515)
(3.60789 6.90358e-15 0.445185)
(2.33917 0 -1.61707)
(-0.987723 0 -1.15157)
(-4.77676 0 -1.42167)
(-9.16348 -4.95174e-15 -2.73997)
(-12.178 0 -3.18379)
(-16.6187 0 -2.83513)
(-17.5823 0 -2.31275)
(-18.6806 0 -1.34482)
(-16.8441 -4.03208e-15 0.00414054)
(-15.21 0 0.228764)
(-14.6889 0 1.90421)
(-12.7283 -8.00634e-16 1.66726)
(-13.3104 0 2.71346)
(-11.6665 0 4.63427)
(-11.1336 -3.79881e-16 4.58797)
(-10.5474 -4.34467e-17 5.62213)
(-8.30545 0 3.93728)
(-5.35635 0 1.30643)
(0.825016 0 -2.0834)
(6.3844 -7.6819e-16 -6.80459)
(14.079 0 -11.1336)
(25.4905 0 -18.9945)
(42.0167 -5.37273e-15 -29.805)
(56.868 6.29893e-15 -37.7292)
(72.1901 0 -40.3106)
(33.0393 0 -8.9558)
(-16.7994 0 31.7961)
(-142.274 4.81508e-15 96.0038)
(-82.8701 -4.42986e-15 65.5101)
(-369.66 -8.68614e-15 164.22)
(224.677 -9.07504e-15 -163.301)
(113.672 -8.40612e-15 -28.7901)
(-84.8149 9.29322e-15 39.8794)
(35.1015 0 -10.5994)
(-76.0062 0 49.6616)
(-5.51068 8.15669e-15 -37.4182)
(282.72 0 -212.251)
(525.275 0 -343.746)
(571.063 0 -324.527)
(307.851 0 -130.008)
(13.8102 0 35.2772)
(-152.605 -3.62686e-14 134.301)
(-344.595 0 230.415)
(-419.123 -1.44827e-14 240.038)
(-312.206 0 161.938)
(-219.351 5.90872e-21 110.378)
(-144.331 2.12228e-14 70.7276)
(-66.7885 0 29.6797)
(-19.4019 0 6.01274)
(14.3816 0 -8.07772)
(-2.05969 0 6.22645)
(-31.3328 1.37718e-14 20.8806)
(-9.85692 0 0.160377)
(76.4433 0 -55.9011)
(146.313 0 -88.0723)
(103.849 0 -51.342)
(-4.17752 0 13.6809)
(-53.8279 0 34.7803)
(-46.196 0 25.2994)
(-28.5291 0 14.8805)
(-15.5654 -2.1206e-14 7.72971)
(-5.03237 0 2.45115)
(1.90304 0 -1.73339)
(8.8396 0 -5.35116)
(9.77858 3.37477e-14 -5.53586)
(8.28791 0 -4.19543)
(-1.71905 3.05218e-14 1.73826)
(-11.5149 0 7.86173)
(-23.8806 2.88021e-18 15.001)
(-32.4672 0 19.3171)
(-35.2653 2.45091e-14 20.5693)
(-35.2006 0 19.9754)
(-31.3458 0 17.3925)
(-26.4315 0 14.5571)
(-21.3594 3.87925e-14 11.5489)
(-18.4118 -7.4911e-14 10.1174)
(-14.8403 -6.88411e-14 8.24928)
(-16.1531 -3.28946e-14 9.21098)
(158.753 0 294.187)
(217.475 9.11153e-16 277.844)
(254.942 0 243.389)
(256.159 0 201.056)
(235.482 9.55118e-16 161.574)
(204.711 9.66243e-16 123.747)
(174.688 -9.76735e-16 98.3382)
(150.046 2.9406e-15 81.829)
(129.319 0 69.7355)
(109.896 -1.79704e-17 56.4997)
(97.2139 -1.01367e-15 47.5049)
(85.5129 0 41.2066)
(75.9713 0 35.7056)
(62.2666 0 25.4198)
(49.0613 0 18.2226)
(35.8079 -6.32477e-19 13.8814)
(23.7036 -1.37098e-18 10.2327)
(10.3481 -2.01313e-15 5.90746)
(-0.222472 -1.94454e-15 5.80375)
(-7.58697 0 1.56829)
(-16.6818 3.55187e-15 2.41442)
(-18.7874 3.33412e-15 2.66011)
(-19.6511 0 -1.93776)
(-22.2637 8.66164e-18 2.27076)
(-12.9133 -9.30495e-18 3.6052)
(-10.2963 2.53026e-15 3.3403)
(-3.02161 0 6.87116)
(-0.272504 0 0.924297)
(-9.60199 -4.04647e-15 -2.08268)
(7.4251 3.60021e-17 17.857)
(9.81453 -6.77156e-15 4.86012)
(-2.79343 0 -5.60713)
(-12.9016 -5.98777e-15 -2.87488)
(-9.93911 0 -3.53)
(-10.1481 0 -2.81659)
(-3.9527 2.37451e-15 3.48373)
(-0.388612 0 1.43795)
(5.75359 4.11639e-15 3.28834)
(5.71675 4.06588e-18 1.43748)
(7.99465 -3.64083e-15 2.94593)
(6.92153 0 -2.16172)
(3.63223 -6.53699e-19 0.374103)
(2.28175 0 -1.45017)
(-0.890616 0 -1.03341)
(-4.86415 0 -1.27071)
(-9.31145 0 -2.59043)
(-12.0572 0 -2.76354)
(-16.3192 -3.57156e-15 -2.09144)
(-17.2356 0 -1.39749)
(-18.2475 0 -0.222633)
(-16.4601 1.89497e-15 1.37599)
(-15.2359 0 1.03241)
(-14.8485 1.11284e-15 2.64823)
(-13.1275 7.49469e-16 2.21421)
(-13.6811 -1.05273e-15 3.22957)
(-12.0492 0 5.54054)
(-11.8375 1.80224e-16 5.39113)
(-11.4379 -3.26366e-17 6.45198)
(-9.39509 0 4.58891)
(-6.33 0 1.30469)
(0.650956 0 -2.40616)
(7.14464 7.21283e-16 -8.12108)
(16.3772 0 -13.4132)
(29.6584 0 -22.9036)
(48.7663 2.52292e-15 -35.5232)
(65.3542 -5.90394e-15 -43.9619)
(81.2421 0 -44.1676)
(35.9882 0 -5.87893)
(-17.0095 0 40.7926)
(-152.988 0 105.567)
(-71.0072 -4.15304e-15 70.047)
(-465.032 8.14439e-15 204.129)
(215.946 0 -180.626)
(145.112 0 -34.2135)
(-85.7927 -8.70955e-15 41.0598)
(31.3186 0 -5.89793)
(-75.1538 -7.76503e-15 49.3295)
(12.326 7.64539e-15 -70.2546)
(357.183 0 -274.809)
(613.456 0 -405.436)
(606.545 0 -334.825)
(278.144 0 -87.8013)
(-32.6906 0 77.7288)
(-177.939 1.69691e-14 160.818)
(-370.818 0 254.32)
(-447.741 2.70978e-14 255.07)
(-337.633 0 169.665)
(-240.765 8.78389e-20 117.013)
(-163.919 3.41082e-18 76.9851)
(-78.7001 0 32.4187)
(-23.934 1.68094e-14 6.06092)
(14.0872 0 -8.45912)
(-2.6528 0 7.82475)
(-31.8783 -2.57555e-14 21.3503)
(-3.41607 0 -6.42513)
(92.7973 0 -69.7231)
(162.767 0 -97.9209)
(107.569 0 -49.5306)
(-9.27904 0 20.9576)
(-60.0987 0 39.4041)
(-51.3169 0 27.5392)
(-31.9566 0 15.967)
(-17.6379 1.98116e-14 8.33442)
(-6.00606 0 2.55765)
(1.37211 0 -1.81078)
(8.41365 0 -5.28119)
(8.49914 -3.15277e-14 -4.79449)
(5.84392 -3.00464e-14 -2.57946)
(-5.64504 -2.85177e-14 4.75072)
(-16.8119 2.68801e-14 11.3665)
(-30.1832 2.96986e-18 19.0981)
(-39.1384 -2.41126e-14 23.3676)
(-42.042 -4.57687e-14 24.5282)
(-41.3642 0 23.3593)
(-37.2766 4.06871e-14 20.5897)
(-31.4978 3.89001e-14 17.2206)
(-26.0551 0 14.0464)
(-22.6968 3.49641e-14 12.4537)
(-18.804 3.213e-14 10.4462)
(-20.0452 3.07038e-14 11.4914)
(131.347 0 236.124)
(175.164 -4.46841e-16 228.758)
(203.271 0 206.588)
(208.492 0 180.942)
(198.174 -8.99395e-16 148.393)
(178.616 -9.09685e-16 117.485)
(158.169 9.19391e-16 93.9517)
(139.064 -2.81625e-15 79.2108)
(118.767 0 65.439)
(101.419 -9.9093e-16 55.415)
(88.8083 1.96217e-15 45.919)
(77.4835 0 38.3835)
(66.6326 -1.9927e-15 33.1247)
(53.2823 0 25.2582)
(41.6078 -1.98864e-15 18.8225)
(29.0017 -1.97344e-15 14.0387)
(16.8145 -1.94108e-15 10.2796)
(4.28437 1.89492e-15 5.85812)
(-6.17439 3.65262e-15 5.16622)
(-12.4593 0 2.65586)
(-21.4723 -3.34336e-15 1.37737)
(-23.6134 0 2.46014)
(-23.0283 0 -0.926265)
(-25.032 2.74698e-15 1.93915)
(-15.7499 -5.05404e-15 4.16576)
(-13.0189 0 3.10839)
(-6.01158 0 7.62812)
(-3.73417 0 1.61668)
(-6.92841 3.74954e-15 2.22022)
(3.71943 -3.38576e-15 13.0758)
(5.32568 -3.03514e-18 5.88581)
(-4.53891 -3.00228e-15 -4.22313)
(-12.3381 5.5897e-15 -0.529703)
(-9.87049 -2.582e-15 -0.832361)
(-9.78814 2.40387e-15 -2.31357)
(-4.16244 -1.09366e-17 2.89746)
(-1.22166 0 1.12572)
(5.32503 -3.8715e-15 3.35849)
(5.18295 -3.65537e-15 1.08043)
(7.3381 3.42369e-15 3.02322)
(6.34851 0 -2.12631)
(3.56298 -3.05383e-15 0.433391)
(1.9124 -2.85011e-15 -1.51698)
(-1.20482 -2.6461e-15 -1.31921)
(-5.3325 -2.42192e-15 -1.53193)
(-9.6355 0 -2.56556)
(-12.0978 0 -2.51216)
(-16.1755 5.53554e-18 -1.52361)
(-17.0459 0 -0.666884)
(-18.0242 0 0.554808)
(-16.332 1.78554e-15 2.37037)
(-15.451 -1.41258e-15 1.53901)
(-15.0718 -1.04515e-15 3.19767)
(-13.4676 -7.73735e-19 2.73554)
(-13.9209 4.89449e-18 3.69115)
(-12.2875 0 6.35133)
(-12.3775 0 6.07983)
(-12.1269 5.58025e-17 7.18055)
(-10.3418 0 5.20386)
(-7.27785 0 1.28405)
(0.365601 -6.26809e-16 -2.7253)
(7.69043 0 -9.51585)
(18.4272 0 -15.8544)
(33.4558 2.08651e-15 -27.0195)
(54.8603 -2.37401e-15 -41.2023)
(72.7102 5.52784e-15 -49.7301)
(88.4528 0 -46.6127)
(37.8545 -3.60746e-15 -1.38677)
(-16.1112 0 50.2731)
(-157.253 0 111.216)
(-72.4229 7.78478e-15 87.4084)
(-557.435 0 242.135)
(195.691 0 -199.221)
(172.968 0 -37.3773)
(-83.2326 0 41.2305)
(28.4414 0 -1.47786)
(-67.9518 7.27145e-15 45.0029)
(46.8235 -3.01321e-18 -94.2592)
(431.644 -7.29777e-15 -341.16)
(687.212 7.73676e-15 -457.896)
(612.048 0 -322.547)
(228.895 0 -31.2945)
(-77.9878 0 119.202)
(-193.098 0 181.765)
(-385.815 0 272.771)
(-466.236 -1.07351e-17 264.45)
(-357.235 0 173.517)
(-257.393 -9.69455e-15 120.958)
(-182.03 5.18903e-18 81.3797)
(-91.2697 0 34.7994)
(-29.4508 -1.57165e-14 6.11737)
(12.9563 0 -8.5541)
(-2.60816 1.31929e-14 9.11219)
(-30.2268 -3.65243e-18 20.3879)
(4.47907 0 -14.7499)
(107.826 0 -83.3438)
(175.122 0 -105.094)
(107.985 0 -45.0521)
(-14.0888 2.19286e-14 28.4017)
(-65.0341 0 43.4005)
(-55.6747 0 29.2297)
(-34.9543 1.89437e-14 16.7444)
(-19.6528 0 8.7648)
(-7.17109 -1.7399e-14 2.71341)
(0.366973 1.64802e-14 -1.65652)
(7.19588 0 -4.75928)
(6.3385 5.88894e-14 -3.51665)
(2.59439 -1.61924e-18 -0.287344)
(-10.1564 5.32682e-14 8.1295)
(-22.4115 -2.50983e-14 15.2028)
(-36.5533 -2.39099e-14 23.2696)
(-45.6732 2.25122e-14 27.3572)
(-48.8705 2.13651e-14 28.5077)
(-47.5718 2.01582e-14 26.7503)
(-43.4798 -3.79822e-14 23.9098)
(-36.8837 -3.63126e-14 20.0283)
(-31.195 -3.3803e-14 16.7621)
(-27.3405 -3.26337e-14 14.967)
(-23.2401 0 12.8877)
(-24.1521 0 13.89)
(112.003 0 192.887)
(135.89 -4.7995e-16 188.038)
(158.435 0 172.886)
(169.097 0 153.322)
(167.135 0 129.302)
(154.872 0 106.696)
(140.911 -9.19343e-16 89.937)
(125.756 8.98403e-16 75.1277)
(109.843 -9.26329e-16 61.5565)
(94.6321 1.83053e-15 52.3257)
(82.0105 -1.84457e-15 43.7445)
(71.4368 0 36.718)
(59.6458 1.8732e-15 30.6646)
(46.7898 0 24.7497)
(35.5358 1.86946e-15 19.6475)
(22.4225 1.8503e-15 14.1865)
(10.2415 0 10.6408)
(-1.56666 0 6.61874)
(-11.5904 -1.71322e-15 5.47117)
(-17.3784 0 4.13765)
(-25.7644 0 2.47197)
(-27.7909 2.9157e-15 4.05486)
(-26.4821 0 1.60785)
(-28.0644 0 2.72012)
(-18.9084 2.37101e-15 6.07171)
(-16.3718 0 3.11681)
(-9.22447 0 8.50078)
(-7.03343 0 3.03803)
(-5.98876 -7.03586e-15 5.86829)
(-0.101078 0 9.93988)
(0.409285 5.80579e-20 5.41003)
(-6.21463 7.92613e-18 -2.09744)
(-12.2794 -2.62225e-15 1.12061)
(-9.57378 2.42658e-15 2.15297)
(-9.37845 -4.51187e-15 0.154219)
(-5.0646 -2.08862e-15 2.74592)
(-1.79407 0 1.20742)
(5.12591 0 4.24781)
(4.39633 -3.43748e-15 1.02235)
(6.20166 3.22248e-15 2.60868)
(5.55961 0 -2.21594)
(3.32451 0 0.581579)
(1.34982 5.27113e-19 -1.4434)
(-1.85781 2.4851e-15 -1.86631)
(-6.02974 2.27437e-15 -1.98903)
(-10.102 4.08144e-15 -2.63825)
(-12.3415 0 -2.50494)
(-16.2914 5.69969e-18 -1.35896)
(-17.0731 0 -0.274108)
(-17.991 0 0.96778)
(-16.3839 -1.67588e-15 3.04636)
(-15.7449 1.32569e-15 1.87269)
(-15.28 0 3.61416)
(-13.6996 -6.59666e-16 3.27131)
(-14.0181 4.46281e-18 4.1033)
(-12.3921 0 7.03332)
(-12.7673 0 6.60527)
(-12.6266 -4.13308e-17 7.7371)
(-11.1849 0 5.65538)
(-8.22235 0 1.15946)
(-0.117019 1.17332e-15 -3.2232)
(8.01013 0 -11.0387)
(20.2126 0 -18.4572)
(36.802 -3.91207e-15 -31.3434)
(60.1806 2.22497e-15 -46.77)
(78.7615 -2.58792e-15 -54.904)
(93.7224 0 -47.5761)
(38.8054 3.3799e-15 4.33711)
(-13.6363 0 59.6724)
(-154.415 -3.97251e-15 113.756)
(-98.4953 -3.64603e-15 124.6)
(-639.897 0 273.745)
(168.239 0 -220.105)
(196.918 6.90921e-15 -37.6485)
(-78.7106 7.60625e-15 41.2102)
(27.3464 0 2.0595)
(-55.4152 0 36.1088)
(78.9718 -1.33899e-14 -140.699)
(504.227 6.82898e-15 -409.202)
(742.547 -1.44817e-14 -497.544)
(588.039 0 -287.257)
(169.475 0 28.6078)
(-116.255 0 156.127)
(-199.633 0 197.117)
(-392.504 0 287.276)
(-477.961 -1.22779e-17 270.123)
(-372.717 0 174.536)
(-270.698 0 121.665)
(-198.458 7.216e-18 85.1072)
(-104.697 0 36.9704)
(-36.3517 -1.46895e-14 6.34402)
(10.8739 0 -8.3797)
(-1.87806 -1.23297e-14 9.96328)
(-26.5418 -4.67443e-18 17.9978)
(13.3202 0 -24.3791)
(121.019 0 -96.2769)
(183.504 0 -109.488)
(105.939 0 -38.4486)
(-18.0268 -2.87448e-20 35.896)
(-68.8417 1.93841e-14 46.7728)
(-59.418 -1.90567e-14 30.4971)
(-37.6852 -1.76932e-14 17.1886)
(-21.6663 0 9.1097)
(-8.60166 1.62486e-14 2.96388)
(-1.11944 -1.53898e-14 -1.23375)
(5.24213 0 -3.81822)
(3.52645 -2.7496e-14 -1.79596)
(-1.45283 5.23999e-14 2.16305)
(-15.1866 -2.48722e-14 11.1704)
(-27.9464 0 19.0267)
(-42.7491 2.23277e-14 27.4043)
(-51.9734 0 31.2299)
(-55.749 0 32.5116)
(-53.9229 -1.88172e-14 30.1751)
(-50.0496 0 27.3934)
(-42.687 0 23.0141)
(-36.8588 3.15513e-14 19.7327)
(-32.3457 3.0459e-14 17.6534)
(-28.1552 2.79897e-14 15.5746)
(-28.4296 -2.67397e-14 16.3743)
(91.9471 0 157.925)
(109.927 4.51085e-16 153.383)
(128.887 9.28989e-16 148.165)
(139.14 0 133.709)
(141.191 0 114.899)
(133.653 0 96.3502)
(123.924 8.63905e-16 84.5351)
(113.347 0 72.5483)
(102 8.70268e-16 60.8836)
(88.712 0 50.1667)
(78.1794 0 43.1595)
(68.2777 -1.78445e-15 37.247)
(56.0173 0 30.3257)
(43.8173 -1.77423e-15 25.3698)
(31.9439 1.75968e-15 21.1351)
(18.0212 -1.73767e-15 15.1647)
(6.02104 0 12.1662)
(-5.65525 1.65074e-15 8.77569)
(-15.6491 0 7.43979)
(-21.8882 3.04202e-15 5.91575)
(-29.1563 0 5.04639)
(-31.3765 -2.7385e-15 6.79094)
(-30.0923 2.55421e-15 5.32443)
(-31.0525 0 4.98864)
(-22.4835 0 8.78362)
(-19.7797 -2.06551e-15 5.32754)
(-12.6105 0 10.4464)
(-10.0959 0 5.28602)
(-7.38734 1.01249e-17 7.87925)
(-4.52679 0 8.62983)
(-3.9656 5.62908e-15 5.81101)
(-7.66152 2.6424e-15 0.388094)