/*--------------------------------*- C++ -*----------------------------------*\
| =========                 |                                                 |
| \\      /  F ield         | OpenFOAM: The Open Source CFD Toolbox           |
|  \\    /   O peration     | Version:  2412                                  |
|   \\  /    A nd           | Website:  www.openfoam.com                      |
|    \\/     M anipulation  |                                                 |
\*---------------------------------------------------------------------------*/
FoamFile
{
    version     2.0;
    format      ascii;
    arch        "LSB;label=32;scalar=64";
    class       volVectorField;
    location    "0.14";
    object      U_0;
}
// * * * * * * * * * * * * * * * * * * * * * * * * * * * * * * * * * * * * * //

dimensions      [0 1 -1 0 0 0 0];

internalField   nonuniform List<vector> 
12600
(
(23.5626 0 -2.13945)
(10.4033 -5.76315e-20 -2.32202)
(4.88117 -3.70214e-20 -2.30286)
(2.71761 0 -1.82702)
(1.85237 3.64785e-23 -1.31667)
(1.39451 0 -0.971419)
(1.08691 -1.81063e-20 -0.746971)
(0.861344 0 -0.590094)
(0.689149 0 -0.473196)
(0.554413 0 -0.382656)
(0.446796 0 -0.310775)
(0.358603 -9.09655e-20 -0.253455)
(0.285451 -9.57975e-20 -0.206331)
(0.224235 0 -0.166862)
(0.172542 2.03758e-19 -0.13345)
(0.12855 0 -0.104934)
(0.0908891 4.60029e-22 -0.0804421)
(0.0585106 0 -0.0593087)
(0.0305992 1.05621e-19 -0.0410192)
(0.00649598 0 -0.0251697)
(-0.014229 0 -0.0113375)
(-0.032056 0 0.000561019)
(-0.047435 4.10155e-19 0.0109941)
(-0.0605437 -4.04164e-19 0.0195388)
(-0.0712804 -3.19162e-22 0.0270184)
(-0.0803872 1.95086e-19 0.0334261)
(-0.0876314 0 0.0387042)
(-0.0935352 0 0.0430742)
(-0.0979086 0 0.0463369)
(-0.100728 -3.55593e-19 0.0487874)
(-0.102295 -6.92169e-19 0.0504552)
(-0.102183 0 0.051238)
(-0.100953 0 0.0513289)
(-0.0992552 -3.17185e-19 0.0510952)
(-0.0987739 -3.07304e-19 0.0514406)
(-0.100949 0 0.0533148)
(-0.106541 0 0.0567642)
(-0.113371 -5.57094e-19 0.0601203)
(-0.113639 0 0.05959)
(-0.0980365 4.15825e-22 0.050397)
(-0.0587641 -5.09379e-19 0.0266603)
(0.0118193 -4.94233e-19 -0.0138175)
(0.103823 0 -0.0630927)
(0.19575 -4.52653e-19 -0.109015)
(0.257433 -4.25076e-19 -0.140132)
(0.268209 7.85742e-19 -0.140221)
(0.198749 -7.10931e-19 -0.0961329)
(0.029934 0 0.00651172)
(-0.231411 5.67236e-19 0.15642)
(-0.546655 -5.19511e-19 0.328742)
(-0.853287 0 0.482481)
(-1.05902 -1.76147e-21 0.587115)
(-1.0904 5.72771e-19 0.5895)
(-0.944313 0 0.505097)
(-0.697387 -1.34681e-18 0.368681)
(-0.438144 0 0.226992)
(-0.226198 0 0.113476)
(-0.0787667 1.01446e-21 0.0354553)
(0.0112843 4.83337e-22 -0.0117963)
(0.057596 1.28108e-18 -0.0355594)
(0.0747466 -1.22485e-18 -0.0439883)
(0.0752222 2.3378e-18 -0.0438632)
(0.0679678 0 -0.039821)
(0.0588558 2.12993e-18 -0.0348253)
(0.0511751 2.03535e-18 -0.0307604)
(0.0455683 -3.89283e-18 -0.0278182)
(0.0414159 1.86216e-18 -0.0256457)
(0.0379609 0 -0.023848)
(0.0348055 0 -0.0220961)
(0.031623 0 -0.0206213)
(0.0287836 0 -0.0191697)
(0.0266357 0 -0.0180857)
(0.0255129 -2.87895e-18 -0.0176104)
(0.0256681 2.76177e-18 -0.017963)
(0.0273585 0 -0.019156)
(0.0306786 0 -0.0211792)
(0.0355339 2.44464e-18 -0.0240468)
(0.0417569 -5.23717e-22 -0.0276621)
(0.049089 4.5077e-18 -0.0318778)
(0.057225 0 -0.0365223)
(0.0658243 0 -0.0414062)
(0.0745703 0 -0.0463552)
(0.0831646 -7.36743e-22 -0.0512062)
(0.0913835 0 -0.0558386)
(0.0990616 0 -0.0601649)
(0.106146 3.33043e-18 -0.0641603)
(0.112626 -5.16913e-22 -0.0678227)
(0.118584 0 -0.0712028)
(0.124168 0 -0.0743862)
(0.129619 -5.51426e-18 -0.0775103)
(0.135107 -5.25368e-18 -0.0806713)
(0.140803 -5.002e-18 -0.0839681)
(0.146926 -4.7621e-18 -0.0875261)
(0.153889 -6.81388e-22 -0.09158)
(0.162 -6.52241e-22 -0.0962977)
(0.171335 4.10092e-18 -0.101718)
(0.181605 0 -0.107671)
(0.192504 0 -0.113987)
(0.20384 0 -0.120559)
(0.21559 1.33782e-17 -0.127376)
(0.227902 -6.35081e-18 -0.13452)
(0.240731 6.02858e-18 -0.141969)
(0.254349 5.72144e-18 -0.149872)
(0.268425 0 -0.158048)
(0.283491 0 -0.166792)
(0.298849 0 -0.175712)
(0.315453 9.25087e-18 -0.18535)
(0.332236 0 -0.195097)
(0.350388 -8.30159e-18 -0.205635)
(0.369112 0 -0.216519)
(0.388471 0 -0.22778)
(0.410566 7.04568e-18 -0.240658)
(0.430218 0 -0.252076)
(0.45863 0 -0.268633)
(0.478246 0 -0.279969)
(0.516094 -1.12603e-17 -0.302036)
(0.541325 0 -0.316556)
(0.595086 1.00238e-17 -0.347639)
(0.625735 0 -0.365842)
(0.862284 3.71413e-22 -0.500014)
(36.7301 -1.41886e-20 -3.33007)
(27.1376 3.48472e-20 -5.1293)
(18.4391 1.79784e-20 -6.05332)
(12.4754 0 -5.504)
(8.87869 5.95093e-21 -4.41896)
(6.64492 7.49712e-21 -3.47248)
(5.17061 1.88844e-20 -2.76216)
(4.12745 -2.6273e-20 -2.23176)
(3.34696 0 -1.8246)
(2.74131 0 -1.50336)
(2.25897 0 -1.24437)
(1.86668 0 -1.0328)
(1.54292 0 -0.856846)
(1.27207 0 -0.708554)
(1.04299 -1.07113e-21 -0.582365)
(0.847538 0 -0.474153)
(0.679621 1.09155e-19 -0.380787)
(0.534576 0 -0.299849)
(0.408786 -2.19209e-19 -0.229453)
(0.299398 2.18034e-19 -0.168112)
(0.204235 0 -0.114478)
(0.121441 2.14687e-19 -0.0678822)
(0.0489651 -2.12867e-19 -0.0271838)
(-0.0131326 2.09685e-19 0.0084546)
(-0.0662777 -2.06065e-19 0.0385998)
(-0.112339 0 0.0645695)
(-0.15103 1.97383e-19 0.0863191)
(-0.183625 0 0.104846)
(-0.209888 0 0.11981)
(-0.230128 0 0.131361)
(-0.245416 3.5782e-19 0.139684)
(-0.254886 0 0.144646)
(-0.260053 0 0.14733)
(-0.262833 0 0.149275)
(-0.267785 0 0.153255)
(-0.279168 0 0.160803)
(-0.297865 0 0.172191)
(-0.315723 5.73181e-19 0.181914)
(-0.31147 0 0.175488)
(-0.259804 1.07658e-18 0.138538)
(-0.137126 1.04464e-18 0.0580007)
(0.0721536 5.05796e-19 -0.0700294)
(0.335709 0 -0.22004)
(0.585988 0 -0.354515)
(0.734481 8.69712e-19 -0.429254)
(0.713457 -8.02281e-19 -0.399793)
(0.445137 7.30506e-19 -0.218224)
(-0.120699 0 0.134519)
(-0.933061 -5.81823e-19 0.619414)
(-1.85282 0 1.14713)
(-2.68444 0 1.59298)
(-3.17813 -5.27759e-19 1.85003)
(-3.16173 0 1.80279)
(-2.68265 0 1.49439)
(-1.94742 1.36079e-18 1.06022)
(-1.1973 0 0.634271)
(-0.589898 0 0.299145)
(-0.168772 1.72067e-21 0.071221)
(0.0874765 1.34066e-18 -0.0648127)
(0.21762 -3.40291e-22 -0.132011)
(0.26451 0 -0.154344)
(0.264354 -2.33963e-18 -0.152066)
(0.242926 -2.22911e-18 -0.139131)
(0.217004 0 -0.124185)
(0.195635 -4.05621e-18 -0.112158)
(0.180284 3.37637e-22 -0.103532)
(0.169184 0 -0.0972706)
(0.160277 1.76775e-18 -0.0921613)
(0.152373 0 -0.0874861)
(0.145169 0 -0.0833677)
(0.139236 0 -0.0802507)
(0.135912 0 -0.0782759)
(0.136011 5.668e-18 -0.0784755)
(0.14044 -2.71356e-18 -0.081123)
(0.149646 0 -0.0865259)
(0.163658 0 -0.0947815)
(0.182212 2.39133e-18 -0.105622)
(0.204705 -8.36706e-22 -0.118694)
(0.230283 -7.90406e-22 -0.133503)
(0.257976 0 -0.149491)
(0.286747 0 -0.166062)
(0.315653 0 -0.18268)
(0.343845 -1.13685e-21 -0.19886)
(0.37071 -3.5307e-18 -0.21426)
(0.395843 3.3715e-18 -0.228652)
(0.419169 -3.21788e-18 -0.242004)
(0.440756 -7.79416e-22 -0.254356)
(0.46094 -2.92285e-18 -0.265913)
(0.480268 0 -0.27699)
(0.499513 5.30015e-18 -0.288041)
(0.519251 0 -0.299382)
(0.540053 4.79601e-18 -0.311355)
(0.562701 0 -0.324406)
(0.588453 -8.66791e-18 -0.33928)
(0.618191 -4.1191e-18 -0.356453)
(0.65197 0 -0.375957)
(0.688863 0 -0.397219)
(0.727896 -7.05748e-18 -0.419706)
(0.768598 6.69887e-18 -0.443129)
(0.810863 -1.27151e-17 -0.467472)
(0.85526 6.03158e-18 -0.493025)
(0.901533 -5.72042e-18 -0.519684)
(0.95066 0 -0.547962)
(1.00145 5.13979e-18 -0.577224)
(1.05578 0 -0.608498)
(1.1112 0 -0.640426)
(1.17109 -8.73977e-18 -0.6749)
(1.23157 0 -0.709747)
(1.29714 1.67555e-21 -0.747487)
(1.36426 7.414e-18 -0.786182)
(1.43446 0 -0.826602)
(1.5128 0 -0.871811)
(1.58428 0 -0.91298)
(1.6836 5.93082e-18 -0.970369)
(1.75316 -1.12012e-17 -1.0105)
(1.88568 1.05857e-17 -1.08713)
(1.96562 0 -1.13384)
(2.15428 -9.41482e-18 -1.24234)
(2.23534 0 -1.29512)
(2.96006 1.66663e-17 -1.71307)
(40.2183 3.0811e-20 -3.68393)
(36.2389 -6.08464e-21 -5.33742)
(29.8848 2.28643e-20 -7.0271)
(23.3535 0 -7.52641)
(17.9174 4.88173e-22 -7.00984)
(13.8717 1.16348e-21 -6.07171)
(10.9655 0 -5.11421)
(8.8393 2.49321e-20 -4.28311)
(7.23123 0 -3.59393)
(5.97834 3.58764e-20 -3.02575)
(4.97867 0 -2.55432)
(4.16564 0 -2.15935)
(3.49366 0 -1.82552)
(2.93079 0 -1.54094)
(2.45418 -9.94592e-20 -1.29649)
(2.04699 0 -1.08518)
(1.69656 0 -0.901527)
(1.3932 0 -0.741239)
(1.12939 1.03715e-19 -0.600891)
(0.899169 -9.43065e-22 -0.477753)
(0.697883 0 -0.369507)
(0.521808 -7.44548e-22 -0.274543)
(0.367213 0 -0.191293)
(0.23333 -1.97688e-19 -0.117017)
(0.116674 0 -0.0536948)
(0.0150674 0 0.00150768)
(-0.0716782 -1.87221e-19 0.0490531)
(-0.145971 0 0.0898038)
(-0.208398 0 0.123166)
(-0.2587 -3.47487e-19 0.150769)
(-0.299048 0 0.172283)
(-0.32845 0 0.187776)
(-0.349374 0 0.199049)
(-0.365157 0 0.20843)
(-0.382757 2.99627e-19 0.220153)
(-0.407819 0 0.236516)
(-0.44076 0 0.256491)
(-0.468471 -5.41944e-19 0.26992)
(-0.459989 0 0.251233)
(-0.376712 -1.01827e-18 0.17958)
(-0.182115 -6.15387e-22 0.0399048)
(0.14306 -4.78863e-19 -0.165219)
(0.545352 0 -0.393284)
(0.917308 0 -0.581404)
(1.11712 -4.11852e-19 -0.654618)
(1.03174 0 -0.543489)
(0.543782 -6.91014e-19 -0.173172)
(-0.417259 0 0.448862)
(-1.73238 -2.3018e-21 1.24571)
(-3.1595 0 2.04966)
(-4.38318 0 2.66601)
(-5.0401 0 2.93756)
(-4.91291 -5.3751e-19 2.74892)
(-4.11771 0 2.19355)
(-2.95793 0 1.49915)
(-1.79085 0 0.855609)
(-0.847634 0 0.361768)
(-0.192473 2.6116e-18 0.0310451)
(0.206561 0 -0.162338)
(0.408584 -2.64196e-22 -0.254917)
(0.480834 0 -0.28247)
(0.480036 1.10318e-18 -0.275394)
(0.446632 2.10171e-18 -0.254425)
(0.406884 0 -0.23192)
(0.374609 3.82209e-18 -0.214313)
(0.351856 1.82441e-18 -0.201947)
(0.335955 0 -0.19319)
(0.323745 -1.66479e-18 -0.186384)
(0.313569 0 -0.180498)
(0.30502 0 -0.175936)
(0.299239 0 -0.173231)
(0.298133 0 -0.172883)
(0.303053 -1.57141e-21 -0.176182)
(0.31509 2.55187e-18 -0.183917)
(0.33494 0 -0.196184)
(0.362578 0 -0.212928)
(0.397424 -7.43753e-22 -0.233684)
(0.438385 -4.30822e-18 -0.257798)
(0.484009 -2.06502e-18 -0.284421)
(0.532688 0 -0.312632)
(0.582744 0 -0.341477)
(0.632685 0 -0.370126)
(0.681203 -6.93341e-18 -0.397853)
(0.727391 8.61669e-22 -0.424181)
(0.770705 -3.16273e-18 -0.448828)
(0.811121 0 -0.471825)
(0.848868 -2.87626e-18 -0.493315)
(0.884586 2.74017e-18 -0.513714)
(0.919274 0 -0.5336)
(0.954224 0 -0.553742)
(0.990448 4.72271e-18 -0.574675)
(1.02893 0 -0.597002)
(1.07107 4.26904e-18 -0.62153)
(1.11888 8.16907e-22 -0.649461)
(1.17374 3.85502e-18 -0.681469)
(1.23553 -3.66209e-18 -0.71744)
(1.30274 0 -0.756397)
(1.3737 6.60468e-18 -0.79748)
(1.44784 -6.26814e-18 -0.840319)
(1.52487 1.18934e-17 -0.884898)
(1.6059 0 -0.931748)
(1.69032 -5.34815e-18 -0.980634)
(1.77997 0 -1.03246)
(1.87258 -4.80607e-18 -1.08609)
(1.97166 4.5527e-18 -1.14336)
(2.07266 0 -1.20184)
(2.18181 8.16948e-18 -1.26492)
(2.29188 0 -1.32864)
(2.41134 1.46399e-17 -1.39768)
(2.53307 -6.92813e-18 -1.46813)
(2.66103 0 -1.54215)
(2.80205 0 -1.62371)
(2.9323 0 -1.6992)
(3.10937 -9.94394e-22 -1.8016)
(3.23403 1.04628e-17 -1.87406)
(3.46968 -9.8834e-18 -2.0106)
(3.60213 0 -2.08855)
(3.93774 -8.78928e-18 -2.2814)
(4.04666 0 -2.36116)
(5.21359 -4.11893e-22 -3.02613)
(40.4575 -1.64421e-20 -4.23148)
(39.7745 -6.42945e-21 -5.169)
(36.718 -3.20412e-21 -6.81943)
(32.0444 -4.62911e-21 -8.06572)
(26.8914 -1.13239e-20 -8.43145)
(22.1355 -1.82716e-20 -8.05095)
(18.1579 0 -7.28162)
(14.9709 0 -6.40327)
(12.439 0 -5.55853)
(10.4118 -3.39771e-20 -4.79977)
(8.76771 0 -4.13619)
(7.41626 0 -3.56081)
(6.29126 0 -3.06235)
(5.34419 0 -2.6294)
(4.53914 0 -2.25203)
(3.84913 -9.46984e-20 -1.92188)
(3.25355 9.60953e-20 -1.63206)
(2.73648 0 -1.37687)
(2.28544 0 -1.15163)
(1.89055 -1.95081e-19 -0.952507)
(1.54393 1.93123e-19 -0.776191)
(1.23931 -1.92217e-19 -0.620231)
(0.97086 1.89266e-19 -0.482429)
(0.73566 1.8719e-19 -0.359808)
(0.529603 -1.83531e-19 -0.25292)
(0.349031 1.80126e-19 -0.158947)
(0.192724 0 -0.0767149)
(0.0564843 -1.72515e-19 -0.00625332)
(-0.0591653 0 0.0543608)
(-0.155775 3.28876e-19 0.104323)
(-0.235993 0 0.14528)
(-0.298901 0 0.177587)
(-0.348105 0 0.203416)
(-0.387967 -2.92407e-19 0.22584)
(-0.42675 -2.83433e-19 0.249975)
(-0.470746 0 0.278771)
(-0.520401 0 0.308589)
(-0.559182 5.1247e-19 0.32407)
(-0.548957 0 0.291213)
(-0.441725 6.59558e-22 0.18544)
(-0.193879 -4.66592e-19 -0.0107158)
(0.21635 0 -0.281949)
(0.718009 0 -0.569243)
(1.17263 0 -0.780208)
(1.38757 0 -0.818849)
(1.21018 -7.23765e-19 -0.588532)
(0.488222 0 -0.00521931)
(-0.844072 5.8928e-19 0.890395)
(-2.58694 5.21577e-19 1.96655)
(-4.39827 0 2.97314)
(-5.86822 0 3.6547)
(-6.56505 0 3.85013)
(-6.2873 5.07133e-19 3.46368)
(-5.20444 -5.53454e-19 2.67467)
(-3.69845 -1.19282e-18 1.76113)
(-2.19998 0 0.947173)
(-0.987063 -1.24926e-18 0.336661)
(-0.140972 -2.45898e-18 -0.0658616)
(0.375651 0 -0.296698)
(0.637498 -2.28459e-18 -0.402967)
(0.731029 0 -0.430411)
(0.730015 -1.03891e-18 -0.41726)
(0.687367 -1.9788e-18 -0.389084)
(0.637197 0 -0.360731)
(0.597006 -1.79867e-18 -0.33949)
(0.569446 -1.7163e-18 -0.325148)
(0.551161 0 -0.315531)
(0.538314 0 -0.308479)
(0.528749 0 -0.303091)
(0.522085 1.42805e-18 -0.300078)
(0.520353 1.36614e-18 -0.299383)
(0.525218 0 -0.302916)
(0.53858 -2.50279e-18 -0.311861)
(0.561907 -2.39561e-18 -0.32684)
(0.595932 0 -0.347916)
(0.640434 0 -0.374794)
(0.694375 -2.10928e-18 -0.406883)
(0.756159 7.76217e-22 -0.443214)
(0.823753 0 -0.482593)
(0.894949 0 -0.523755)
(0.967508 0 -0.565438)
(1.03947 0 -0.606565)
(1.10919 1.05188e-21 -0.646233)
(1.17555 3.10529e-18 -0.683883)
(1.23798 0 -0.719238)
(1.29658 0 -0.752431)
(1.35183 0 -0.783754)
(1.40471 2.5661e-18 -0.813849)
(1.45672 0 -0.843584)
(1.50965 4.64885e-18 -0.874021)
(1.56496 -4.42258e-18 -0.905933)
(1.62407 4.20378e-18 -0.940184)
(1.68904 -3.99646e-18 -0.97797)
(1.76252 7.59431e-18 -1.02087)
(1.84629 -3.60778e-18 -1.06972)
(1.93988 3.42673e-18 -1.12415)
(2.0413 0 -1.18285)
(2.14817 0 -1.2446)
(2.25999 -5.86036e-18 -1.30908)
(2.37619 -5.56099e-18 -1.37619)
(2.49857 -5.27263e-18 -1.44679)
(2.62592 1.18326e-21 -1.52039)
(2.76117 0 -1.59842)
(2.90073 0 -1.67907)
(3.05 -4.25541e-18 -1.76515)
(3.202 0 -1.85299)
(3.36621 -7.63131e-18 -1.94766)
(3.53153 0 -2.04319)
(3.71093 -1.58399e-21 -2.14665)
(3.89304 0 -2.25184)
(4.08489 -6.11916e-18 -2.36262)
(4.29437 5.78833e-18 -2.48355)
(4.48907 5.47022e-18 -2.59633)
(4.74971 -1.14786e-21 -2.74676)
(4.93298 0 -2.85356)
(5.27824 9.22983e-18 -3.05321)
(5.45899 8.70845e-18 -3.16107)
(5.94982 8.20712e-18 -3.44163)
(6.06328 0 -3.54089)
(7.60431 -4.6593e-22 -4.41799)
(39.899 0 -4.85722)
(40.3222 -4.75627e-21 -5.29936)
(39.5288 0 -6.49139)
(37.1971 4.37401e-21 -7.83644)
(33.6821 1.02614e-20 -8.7702)
(29.6206 9.86306e-21 -9.07337)
(25.572 0 -8.82734)
(21.8735 0 -8.23074)
(18.6545 -2.72806e-20 -7.47016)
(15.9169 -3.14272e-20 -6.6716)
(13.6076 3.49537e-20 -5.90262)
(11.6591 7.57148e-20 -5.19248)
(10.0079 8.03814e-20 -4.54994)
(8.6 0 -3.97419)
(7.39191 0 -3.46047)
(6.34887 1.78393e-19 -3.00281)
(5.44328 -6.12568e-22 -2.59511)
(4.65311 0 -2.23173)
(3.96074 -9.13986e-20 -1.90762)
(3.35194 -1.82641e-19 -1.61839)
(2.8152 -1.82571e-19 -1.36013)
(2.34128 0 -1.12972)
(1.92191 -1.78908e-19 -0.92447)
(1.55179 1.75812e-19 -0.740825)
(1.22533 1.73467e-19 -0.578636)
(0.937333 -4.47205e-22 -0.435119)
(0.685096 0 -0.308497)
(0.463886 3.47107e-22 -0.198768)
(0.273678 0 -0.101364)
(0.110075 3.09644e-19 -0.0208917)
(-0.0281738 0 0.0472954)
(-0.141721 0 0.103017)
(-0.234627 0 0.149586)
(-0.311648 2.76176e-19 0.191316)
(-0.381793 0 0.234008)
(-0.452467 0 0.279058)
(-0.523877 0 0.320293)
(-0.578101 0 0.337952)
(-0.573472 -4.67189e-19 0.291177)
(-0.456743 9.06186e-19 0.153483)
(-0.179812 0 -0.0907638)
(0.28056 4.25802e-19 -0.412385)
(0.842138 0 -0.735974)
(1.34327 0 -0.940451)
(1.54753 0 -0.909533)
(1.26334 -2.45001e-21 -0.528216)
(0.314465 0 0.287329)
(-1.34358 -5.55609e-19 1.4459)
(-3.42392 0 2.74565)
(-5.49212 0 3.86372)
(-7.07613 -4.2437e-19 4.50665)
(-7.72828 0 4.54062)
(-7.29086 0 3.92415)
(-5.97329 4.35599e-21 2.91619)
(-4.20093 1.12354e-18 1.82904)
(-2.44589 0 0.897752)
(-1.01889 2.56535e-21 0.21565)
(-0.0171449 2.31225e-18 -0.225867)
(0.597322 0 -0.473139)
(0.910122 1.07487e-18 -0.581229)
(1.02256 0 -0.603299)
(1.02254 9.7735e-19 -0.582849)
(0.973429 1.86121e-18 -0.54852)
(0.915923 0 -0.51637)
(0.870661 1.69064e-18 -0.493575)
(0.840922 3.15399e-22 -0.47912)
(0.822928 0 -0.470292)
(0.812116 0 -0.464977)
(0.806272 0 -0.461984)
(0.805168 -2.68356e-18 -0.462208)
(0.810665 -5.63322e-22 -0.466579)
(0.824991 0 -0.476741)
(0.850458 2.34763e-18 -0.493856)
(0.888765 4.49657e-18 -0.518241)
(0.940316 0 -0.550145)
(1.00458 0 -0.58915)
(1.08015 0 -0.634284)
(1.16493 7.45503e-22 -0.684253)
(1.25632 0 -0.737535)
(1.35156 0 -0.792559)
(1.44793 0 -0.847803)
(1.54308 0 -0.902008)
(1.63511 3.0454e-18 -0.954158)
(1.72278 2.90792e-18 -1.00368)
(1.8056 0 -1.05037)
(1.88381 0 -1.0945)
(1.9582 0 -1.13656)
(2.03013 -6.28389e-22 -1.17745)
(2.10163 0 -1.21833)
(2.17494 -4.35198e-18 -1.26055)
(2.25202 0 -1.30512)
(2.33467 -3.9342e-18 -1.35317)
(2.42567 0 -1.40631)
(2.52816 -3.55225e-18 -1.4664)
(2.64427 0 -1.53435)
(2.77304 0 -1.60945)
(2.91214 0 -1.69009)
(3.05844 0 -1.77475)
(3.21169 5.47969e-18 -1.86321)
(3.37086 0 -1.95526)
(3.5386 4.92907e-18 -2.05216)
(3.71288 4.67314e-18 -2.15304)
(3.89794 0 -2.25994)
(4.08853 0 -2.37025)
(4.29232 0 -2.4879)
(4.49944 0 -2.60777)
(4.72304 1.63179e-21 -2.73683)
(4.94763 0 -2.86678)
(5.19115 -1.27728e-17 -3.0074)
(5.43745 0 -3.14981)
(5.69684 1.14298e-17 -3.29987)
(5.97828 -5.40615e-18 -3.46233)
(6.23985 -5.10872e-18 -3.61437)
(6.58709 -4.83035e-18 -3.81454)
(6.82882 0 -3.95627)
(7.28609 0 -4.22033)
(7.50828 -1.62607e-17 -4.35463)
(8.15576 7.65964e-18 -4.72305)
(8.25529 7.22857e-18 -4.8338)
(10.0919 -6.78032e-18 -5.87114)
(39.3611 0 -5.33988)
(39.8356 3.43204e-20 -5.60607)
(40.0215 0 -6.35316)
(39.3315 0 -7.43925)
(37.5659 0 -8.50776)
(34.9165 0 -9.25391)
(31.7363 0 -9.54965)
(28.3685 2.30084e-20 -9.4236)
(25.069 2.57381e-20 -8.98543)
(21.9951 5.94513e-20 -8.35848)
(19.2206 -6.58371e-20 -7.64308)
(16.7621 -7.14519e-20 -6.90694)
(14.6039 -7.58606e-20 -6.19)
(12.7159 0 -5.51314)
(11.0648 0 -4.88562)
(9.61855 -1.67133e-19 -4.31013)
(8.34867 -1.69786e-19 -3.78576)
(7.23056 0 -3.30985)
(6.24341 8.62675e-20 -2.87896)
(5.3697 1.72385e-19 -2.48952)
(4.5948 0 -2.13795)
(3.90661 1.69467e-19 -1.82105)
(3.29448 0 -1.53605)
(2.75056 -5.46598e-22 -1.27929)
(2.26765 -1.62735e-19 -1.04987)
(1.83899 -4.32458e-22 -0.845111)
(1.46023 0 -0.662686)
(1.12579 1.53487e-19 -0.502396)
(0.833526 -2.99088e-19 -0.360353)
(0.579502 -5.83699e-19 -0.239075)
(0.361102 -2.83869e-19 -0.134322)
(0.176305 0 -0.0464152)
(0.0210473 -2.6797e-19 0.0290149)
(-0.109567 0 0.0972061)
(-0.224992 0 0.163684)
(-0.333111 0 0.229062)
(-0.434362 0 0.284708)
(-0.512297 0 0.306893)
(-0.525159 6.16597e-22 0.250265)
(-0.418756 -4.2676e-19 0.0870154)
(-0.142495 0 -0.193385)
(0.329201 -8.02068e-19 -0.548362)
(0.911264 0 -0.885195)
(1.42664 0 -1.05675)
(1.59875 0 -0.933627)
(1.20962 6.45266e-19 -0.373333)
(0.0594935 0 0.681055)
(-1.85871 0 2.07731)
(-4.17145 0 3.53362)
(-6.37017 0 4.66957)
(-7.95832 7.96868e-19 5.18314)
(-8.51253 0 5.00275)
(-7.93366 0 4.14821)
(-6.44331 4.8651e-19 2.94652)
(-4.48114 0 1.72683)
(-2.53674 0 0.721173)
(-0.944322 2.20532e-18 0.0044234)
(0.182435 -1.08657e-18 -0.448688)
(0.878093 0 -0.694379)
(1.23474 0 -0.794054)
(1.36464 0 -0.80616)
(1.3671 -9.18395e-19 -0.777419)
(1.31425 0 -0.737966)
(1.25242 0 -0.703786)
(1.2049 -3.17586e-18 -0.681316)
(1.17565 3.02971e-18 -0.668583)
(1.16057 0 -0.662426)
(1.15502 0 -0.660133)
(1.156 0 -0.661763)
(1.16357 1.25965e-18 -0.66787)
(1.17989 -1.20354e-18 -0.679585)
(1.20759 -2.30078e-18 -0.698408)
(1.2491 -2.20235e-18 -0.72544)
(1.30576 -2.10841e-18 -0.761439)
(1.37798 2.01846e-18 -0.806227)
(1.46491 0 -0.859055)
(1.56469 0 -0.918702)
(1.6747 1.77625e-18 -0.983549)
(1.79185 0 -1.05177)
(1.91285 0 -1.12152)
(2.0346 0 -1.19108)
(2.15441 0 -1.25904)
(2.2702 0 -1.32434)
(2.38069 -5.44565e-18 -1.38643)
(2.4855 0 -1.44523)
(2.58509 -2.47729e-18 -1.50119)
(2.68061 0 -1.555)
(2.77376 -6.50837e-22 -1.60783)
(2.86715 4.2787e-18 -1.66118)
(2.96341 0 -1.71661)
(3.06503 0 -1.7754)
(3.17414 0 -1.83891)
(3.29429 0 -1.90919)
(3.42889 3.32063e-18 -1.98827)
(3.58046 0 -2.0771)
(3.74736 0 -2.17454)
(3.92717 0 -2.27878)
(4.11585 0 -2.38793)
(4.31368 0 -2.50206)
(4.51887 0 -2.62067)
(4.73521 0 -2.74556)
(4.95939 0 -2.87528)
(5.19741 -4.13661e-18 -3.01267)
(5.44181 0 -3.15408)
(5.70304 0 -3.30477)
(5.96771 0 -3.45787)
(6.25323 6.65896e-18 -3.62252)
(6.53906 0 -3.78781)
(6.84849 5.96428e-18 -3.96634)
(7.16025 0 -4.14646)
(7.48771 -1.36091e-21 -4.33584)
(7.84144 0 -4.53976)
(8.16844 4.76822e-18 -4.73005)
(8.60124 0 -4.97901)
(8.89691 0 -5.1532)
(9.46304 0 -5.47923)
(9.71572 7.58981e-18 -5.63499)
(10.5127 -1.43e-17 -6.0851)
(10.5834 -1.3495e-17 -6.20382)
(12.6228 -6.32815e-18 -7.34951)
(38.9528 0 -5.64107)
(39.2493 -3.84409e-20 -5.88655)
(39.6281 0 -6.37341)
(39.6867 0 -7.15551)
(39.0981 -2.51926e-20 -8.09322)
(37.7721 -2.31223e-20 -8.96713)
(35.795 2.29475e-20 -9.59733)
(33.3397 -7.00405e-20 -9.89853)
(30.6015 0 -9.87286)
(27.7596 6.34017e-22 -9.57686)
(24.9554 3.09557e-20 -9.08741)
(22.2854 0 -8.47797)
(19.8053 0 -7.80747)
(17.539 0 -7.11827)
(15.4895 0 -6.43846)
(13.6473 5.31985e-22 -5.78533)
(11.997 5.10654e-22 -5.1686)
(10.5206 8.0038e-20 -4.59297)
(9.20025 8.04203e-20 -4.05994)
(8.01908 0 -3.5692)
(6.96187 -1.60239e-19 -3.11925)
(6.01529 -1.59711e-19 -2.70814)
(5.16728 0 -2.33391)
(4.40809 -5.23869e-22 -1.99345)
(3.72911 4.66812e-22 -1.68566)
(3.12229 -1.50568e-19 -1.40824)
(2.58162 0 -1.1587)
(2.10072 0 -0.936723)
(1.67583 2.8179e-19 -0.738444)
(1.30232 5.17387e-22 -0.56581)
(0.976349 5.3438e-19 -0.415119)
(0.695305 0 -0.285559)
(0.454898 5.04464e-19 -0.172415)
(0.250235 0 -0.0696599)
(0.0716977 0 0.0272227)
(-0.0879608 -2.28977e-19 0.119177)
(-0.231298 0 0.193632)
(-0.34577 -4.27541e-19 0.224926)
(-0.392351 6.3721e-22 0.166568)
(-0.320856 4.0043e-19 -0.0120442)
(-0.0788482 0 -0.31337)
(0.363474 4.67141e-22 -0.683368)
(0.927004 0 -1.01266)
(1.42807 0 -1.12929)
(1.5618 0 -0.888261)
(1.07971 0 -0.139022)
(-0.230042 0 1.14678)
(-2.32747 5.00027e-19 2.74105)
(-4.76128 0 4.27913)
(-6.97602 0 5.34516)
(-8.48953 -3.73671e-19 5.66087)
(-8.92963 0 5.23823)
(-8.24847 -4.05178e-19 4.15397)
(-6.64837 -4.4824e-19 2.78651)
(-4.56204 9.7389e-19 1.46964)
(-2.48273 0 0.424841)
(-0.764288 -1.03487e-18 -0.295847)
(0.462682 -1.01831e-18 -0.736665)
(1.22599 0 -0.964913)
(1.62091 0 -1.04695)
(1.76735 0 -1.04486)
(1.77379 8.62313e-19 -1.00682)
(1.71967 0 -0.963109)
(1.65615 0 -0.928556)
(1.60888 1.4902e-18 -0.90824)
(1.5827 -2.84247e-18 -0.898871)
(1.57342 0 -0.896825)
(1.5754 0 -0.900427)
(1.586 0 -0.908958)
(1.60567 0 -0.922941)
(1.63651 -1.12781e-18 -0.943798)
(1.68105 2.15721e-18 -0.973362)
(1.74173 0 -1.01279)
(1.81996 0 -1.06236)
(1.91583 -1.8917e-18 -1.12183)
(2.0281 0 -1.19015)
(2.15451 -1.7353e-18 -1.26579)
(2.29196 1.66252e-18 -1.3468)
(2.43687 0 -1.43109)
(2.58552 0 -1.51657)
(2.73442 0 -1.60136)
(2.88063 0 -1.68395)
(3.02197 0 -1.76328)
(3.1571 2.54828e-18 -1.83886)
(3.28584 0 -1.91078)
(3.40884 4.63585e-18 -1.97964)
(3.52765 0 -2.04641)
(3.64429 -6.40164e-22 -2.11248)
(3.76196 -1.18626e-21 -2.17969)
(3.88359 0 -2.24981)
(4.01227 3.61855e-18 -2.32437)
(4.15035 0 -2.40494)
(4.30218 0 -2.49399)
(4.47122 -6.20857e-18 -2.5936)
(4.66044 0 -2.70477)
(4.86736 0 -2.82579)
(5.08976 0 -2.95484)
(5.32249 0 -3.08956)
(5.56665 0 -3.23047)
(5.8193 0 -3.37661)
(6.08572 0 -3.53048)
(6.3608 0 -3.68977)
(6.65277 3.8646e-18 -3.85836)
(6.95133 0 -4.03123)
(7.2703 0 -4.21527)
(7.59206 0 -4.40153)
(7.93882 -6.21611e-18 -4.60154)
(8.28439 -5.88377e-18 -4.80151)
(8.65766 -5.56699e-18 -5.01694)
(9.03215 5.26708e-18 -5.23335)
(9.42358 -1.3163e-21 -5.45998)
(9.84531 -4.71047e-18 -5.70289)
(10.231 -8.90285e-18 -5.928)
(10.7427 0 -6.22168)
(11.0824 7.94519e-18 -6.4233)
(11.7469 7.50509e-18 -6.80476)
(12.0157 0 -6.97441)
(12.9437 6.67374e-18 -7.49452)
(12.9773 6.2979e-18 -7.61671)
(15.125 5.9065e-18 -8.81266)
(38.6096 0 -5.82589)
(38.7776 1.93842e-20 -6.0807)
(39.0815 0 -6.45463)
(39.3283 0 -7.02026)
(39.2881 2.37249e-20 -7.75482)
(38.8091 2.17714e-20 -8.55469)
(37.8308 -2.1603e-20 -9.28571)
(36.37 7.13753e-20 -9.83648)
(34.4996 0 -10.1451)
(32.3234 2.93691e-20 -10.2002)
(29.9543 -5.98055e-20 -10.027)
(27.4979 0 -9.6697)
(25.0432 6.63693e-20 -9.17739)
(22.6579 0 -8.5958)
(20.3888 7.12423e-20 -7.96336)
(18.2639 7.33505e-20 -7.3101)
(16.2965 7.45698e-20 -6.65805)
(14.4893 -7.53317e-20 -6.02249)
(12.8383 -1.5098e-19 -5.41337)
(11.3353 0 -4.83677)
(9.97048 1.50819e-19 -4.2959)
(8.73325 0 -3.79214)
(7.61306 0 -3.3259)
(6.60031 -1.46181e-19 -2.89591)
(5.68622 2.87329e-19 -2.50177)
(4.86239 0 -2.14224)
(4.12185 0 -1.81522)
(3.45777 0 -1.5206)
(2.86507 -2.64058e-19 -1.25504)
(2.33858 2.58e-19 -1.01992)
(1.87356 -4.40355e-22 -0.812046)
(1.46656 2.43833e-19 -0.630082)
(1.11316 -4.73938e-19 -0.469363)
(0.808753 2.29666e-19 -0.32351)
(0.544904 -2.22441e-19 -0.188268)
(0.314313 2.2781e-22 -0.0626459)
(0.111266 0 0.0369359)
(-0.0566085 4.021e-19 0.0854169)
(-0.158146 3.8878e-19 0.0353958)
(-0.149127 -3.76546e-19 -0.144039)
(0.0235335 0 -0.447925)
(0.394768 3.5425e-19 -0.815202)
(0.901727 3.41859e-19 -1.11927)
(1.3657 3.27706e-19 -1.16478)
(1.46292 3.09966e-19 -0.785411)
(0.910307 0 0.151639)
(-0.502142 0 1.64766)
(-2.6878 2.51412e-21 3.39062)
(-5.13444 0 4.93482)
(-7.27284 0 5.85704)
(-8.66792 -3.45817e-19 5.93385)
(-9.00809 3.46806e-19 5.26627)
(-8.27484 3.80543e-19 3.97141)
(-6.62304 5.03423e-21 2.46205)
(-4.46483 -7.41424e-21 1.07345)
(-2.29186 0 0.0152105)
(-0.477203 0 -0.685022)
(0.830433 1.91046e-18 -1.09368)
(1.65058 0 -1.29024)
(2.07927 0 -1.34605)
(2.24151 -8.49491e-19 -1.32558)
(2.25313 0 -1.27702)
(2.19966 0 -1.22961)
(2.13659 1.46589e-18 -1.19604)
(2.09171 -1.39699e-18 -1.17952)
(2.07067 2.66481e-18 -1.17549)
(2.06935 0 -1.17925)
(2.08116 -1.21303e-18 -1.19074)
(2.10463 0 -1.20747)
(2.1395 0 -1.23086)
(2.18772 2.11344e-18 -1.26298)
(2.25207 0 -1.30527)
(2.33493 0 -1.35878)
(2.43746 0 -1.42375)
(2.55954 0 -1.49956)
(2.6996 0 -1.58486)
(2.85496 1.62499e-18 -1.67783)
(3.02203 -7.67158e-22 -1.77623)
(3.19683 -1.49017e-18 -1.87771)
(3.37519 1.42671e-18 -1.97997)
(3.55333 0 -2.081)
(3.72804 0 -2.17922)
(3.89705 0 -2.27361)
(4.05901 0 -2.36375)
(4.21392 0 -2.44988)
(4.36259 -7.67056e-22 -2.5328)
(4.50699 0 -2.61372)
(4.64941 -1.96636e-18 -2.69427)
(4.79363 -1.19731e-21 -2.77661)
(4.94277 0 -2.86262)
(5.10059 -3.38327e-18 -2.95417)
(5.26952 0 -3.05293)
(5.45474 3.05356e-18 -3.16181)
(5.65949 8.91501e-22 -3.28279)
(5.88734 0 -3.41693)
(6.13477 0 -3.56186)
(6.40012 0 -3.71591)
(6.67686 0 -3.87615)
(6.96733 4.46783e-18 -4.04376)
(7.26682 0 -4.21703)
(7.58264 0 -4.39939)
(7.90713 3.80746e-18 -4.58734)
(8.25145 0 -4.7861)
(8.60159 -3.41796e-18 -4.98888)
(8.9755 3.23709e-18 -5.20453)
(9.35048 0 -5.42162)
(9.75413 1.16082e-17 -5.65432)
(10.1541 1.60143e-21 -5.88576)
(10.5849 1.03949e-17 -6.13427)
(11.015 -4.91794e-18 -6.38271)
(11.4615 -4.65015e-18 -6.64132)
(11.9419 4.39783e-18 -6.91757)
(12.3744 4.15526e-18 -7.17069)
(12.9521 3.92727e-18 -7.50126)
(13.3216 -7.41697e-18 -7.72233)
(14.0659 -7.00587e-18 -8.14782)
(14.3337 -6.60914e-18 -8.32273)
(15.364 -6.22658e-18 -8.89432)
(15.3535 0 -9.018)
(17.5176 0 -10.2113)
(38.2859 0 -5.95383)
(38.3866 2.22381e-20 -6.20712)
(38.5998 0 -6.53122)
(38.8296 0 -6.96915)
(38.9517 0 -7.53375)
(38.8629 0 -8.19439)
(38.4833 2.85046e-20 -8.88017)
(37.763 -2.43141e-20 -9.50538)
(36.6885 2.7578e-20 -9.99671)
(35.2814 -5.30184e-20 -10.3087)
(33.589 5.62272e-20 -10.4253)
(31.6727 0 -10.3539)
(29.5995 -6.23929e-20 -10.1164)
(27.4356 0 -9.74227)
(25.2418 -6.69727e-20 -9.26326)
(23.0703 -6.82758e-20 -8.70986)
(20.9621 0 -8.10936)
(18.9469 0 -7.48472)
(17.0439 7.07779e-20 -6.85431)
(15.2634 0 -6.23211)
(13.6094 0 -5.6283)
(12.081 -1.39567e-19 -5.04985)
(10.6747 0 -4.50162)
(9.38522 0 -3.98597)
(8.20658 -1.34847e-19 -3.50476)
(7.13233 0 -3.05885)
(6.15623 0 -2.64757)
(5.27215 0 -2.27168)
(4.47473 4.95886e-19 -1.92895)
(3.75881 0 -1.62068)
(3.11924 -4.19557e-22 -1.34455)
(2.55209 -3.70017e-22 -1.09908)
(2.05312 2.2255e-19 -0.879939)
(1.6184 -2.15835e-19 -0.680705)
(1.24102 4.17826e-19 -0.497577)
(0.913431 2.02175e-19 -0.330646)
(0.628187 0 -0.19684)
(0.384619 0 -0.121133)
(0.208016 3.64054e-19 -0.14202)
(0.122136 -3.52403e-19 -0.311475)
(0.188871 0 -0.599735)
(0.44747 0 -0.947302)
(0.860549 -5.81461e-23 -1.21215)
(1.26644 -3.07767e-19 -1.1773)
(1.33139 -2.91079e-19 -0.655815)
(0.747196 -5.45833e-19 0.468826)
(-0.703349 0 2.14054)
(-2.88288 2.37651e-21 3.97929)
(-5.24658 0 5.46099)
(-7.24493 0 6.18676)
(-8.51096 3.2457e-19 6.01217)
(-8.78752 -3.25474e-19 5.11372)
(-8.0545 0 3.6312)
(-6.40011 3.90264e-19 1.99712)
(-4.20863 -7.76566e-21 0.552031)
(-1.97024 0 -0.502915)
(-0.08006 0 -1.16426)
(1.29372 -1.78954e-18 -1.5245)
(2.16241 0 -1.67643)
(2.62103 0 -1.69776)
(2.79811 1.59297e-18 -1.65454)
(2.81551 0 -1.59375)
(2.76382 0 -1.54283)
(2.70259 -2.74779e-18 -1.51121)
(2.66157 1.30929e-18 -1.49965)
(2.64779 -1.24847e-18 -1.50128)
(2.65499 0 -1.51455)
(2.67937 1.1365e-18 -1.53413)
(2.71769 0 -1.5606)
(2.76982 -1.03602e-18 -1.5953)
(2.83781 -9.89548e-19 -1.64009)
(2.92423 0 -1.69663)
(3.03144 0 -1.76582)
(3.16043 1.73029e-18 -1.84757)
(3.31084 1.65643e-18 -1.94105)
(3.48073 0 -2.0446)
(3.66708 0 -2.15611)
(3.86585 -2.9115e-18 -2.27305)
(4.07268 1.39449e-18 -2.39285)
(4.28296 -2.66926e-18 -2.51302)
(4.49265 0 -2.63145)
(4.69822 0 -2.74648)
(4.89736 0 -2.85712)
(5.08858 0 -2.96302)
(5.2721 0 -3.0646)
(5.44879 -7.64407e-22 -3.16279)
(5.62105 0 -3.25907)
(5.79131 0 -3.35523)
(5.96396 -1.19192e-21 -3.45376)
(6.14219 0 -3.55661)
(6.33046 -3.16039e-18 -3.66596)
(6.53107 0 -3.7835)
(6.75015 -2.85375e-18 -3.91261)
(6.99033 8.86502e-22 -4.05496)
(7.25607 0 -4.21177)
(7.54251 0 -4.37986)
(7.8491 0 -4.55802)
(8.16749 0 -4.74249)
(8.50176 -1.34098e-21 -4.9354)
(8.84475 3.95657e-18 -5.13396)
(9.20641 -3.75077e-18 -5.34282)
(9.57568 -3.55611e-18 -5.55685)
(9.96738 0 -5.78298)
(10.3629 3.19197e-18 -6.01222)
(10.7851 -3.0229e-18 -6.2557)
(11.2055 0 -6.49922)
(11.6573 -5.41872e-18 -6.75967)
(12.102 1.02554e-17 -7.01707)
(12.5791 -4.85193e-18 -7.29236)
(13.0531 0 -7.56607)
(13.5408 4.33869e-18 -7.84884)