/*--------------------------------*- C++ -*----------------------------------*\
| =========                 |                                                 |
| \\      /  F ield         | OpenFOAM: The Open Source CFD Toolbox           |
|  \\    /   O peration     | Version:  2412                                  |
|   \\  /    A nd           | Website:  www.openfoam.com                      |
|    \\/     M anipulation  |                                                 |
\*---------------------------------------------------------------------------*/
FoamFile
{
    version     2.0;
    format      ascii;
    arch        "LSB;label=32;scalar=64";
    class       volVectorField;
    location    "1.525";
    object      ddtCorrDdt0(U);
}
// * * * * * * * * * * * * * * * * * * * * * * * * * * * * * * * * * * * * * //

dimensions      [0 1 -2 0 0 0 0];

internalField   nonuniform List<vector> 
12600
(
(-0.0812029 -1.23422e-23 -0.00819905)
(-0.0446306 -6.89708e-23 -0.00371361)
(-0.0260801 -7.49957e-23 0.000256342)
(-0.0164758 0 0.0018087)
(-0.012664 -9.17674e-23 0.00189047)
(-0.0117265 -1.10096e-22 0.00157802)
(-0.0118789 0 0.00125153)
(-0.0124526 0 0.00105546)
(-0.0132092 7.22135e-22 0.00103892)
(-0.0140252 0 0.00114067)
(-0.0147352 -4.6353e-22 0.00129594)
(-0.0151995 -5.04936e-22 0.00147133)
(-0.0153678 5.37211e-22 0.0016523)
(-0.0152564 0 0.0018266)
(-0.0148971 5.66551e-22 0.00197802)
(-0.014312 0 0.00208903)
(-0.013518 -2.22044e-21 0.00214554)
(-0.0125436 0 0.00214064)
(-0.0114417 1.02377e-21 0.00207644)
(-0.0102921 9.69997e-22 0.00196343)
(-0.00918907 -9.16828e-22 0.00181727)
(-0.00822191 8.75889e-25 0.00165517)
(-0.00745684 0 0.00149345)
(-0.00692848 1.61775e-21 0.00134679)
(-0.00663786 0 0.0012273)
(-0.00655235 0 0.00114277)
(-0.00660664 1.62481e-21 0.00109454)
(-0.00670647 0 0.00107617)
(-0.00673908 2.06051e-24 0.00107427)
(-0.0065896 -1.68165e-21 0.00107116)
(-0.00616184 -1.65462e-21 0.00104865)
(-0.00539541 -1.58593e-21 0.000991207)
(-0.00427793 1.46946e-21 0.000888644)
(-0.00284661 2.6078e-21 0.000737025)
(-0.00118594 2.18596e-21 0.000539691)
(0.000584858 -1.68471e-21 0.000306314)
(0.00232281 0 5.27546e-05)
(0.00388264 5.97104e-22 -0.000201753)
(0.00512847 0 -0.000435402)
(0.00595739 4.06095e-22 -0.000628135)
(0.00630295 0 -0.000761995)
(0.00615479 -1.47029e-23 -0.000826102)
(0.00554568 0 -0.00081495)
(0.00456433 -7.53765e-24 -0.000733202)
(0.00332231 2.48882e-21 -0.000590583)
(0.001964 -2.25354e-21 -0.000406252)
(0.000614413 1.93731e-21 -0.000199201)
(-0.00060499 0 7.40592e-06)
(-0.00163731 0 0.000199197)
(-0.00244629 9.70192e-22 0.00036244)
(-0.00307318 1.48446e-21 0.00049761)
(-0.00355755 1.12485e-21 0.000605029)
(-0.00399607 3.89138e-24 0.000698466)
(-0.00443553 5.6438e-22 0.000784457)
(-0.00495074 0 0.00087811)
(-0.00552892 7.62389e-23 0.000979563)
(-0.00618242 4.66866e-22 0.00109531)
(-0.00683306 8.77367e-22 0.00121445)
(-0.00745143 0 0.00133503)
(-0.00793609 0 0.00144012)
(-0.00825787 0 0.00152535)
(-0.00833734 -3.87023e-21 0.00157559)
(-0.00817122 0 0.0015891)
(-0.00772911 0 0.0015583)
(-0.0070328 3.20286e-21 0.00148468)
(-0.00611026 0 0.00137074)
(-0.00498818 0 0.00121793)
(-0.00375919 0 0.00104011)
(-0.00243612 1.50052e-20 0.000834539)
(-0.00120207 -2.08928e-20 0.000630166)
(-5.48265e-05 -2.60717e-20 0.00041897)
(0.000691545 -3.67195e-23 0.000253383)
(0.00106965 3.43575e-20 0.000120829)
(0.000650403 0 0.0001013)
(-0.0003997 -3.55934e-20 0.000167003)
(-0.00248846 0 0.000407502)
(-0.00515238 0 0.00075105)
(-0.00862241 0 0.00126239)
(-0.0121396 1.00008e-22 0.0018142)
(-0.0157514 -1.28316e-21 0.00243081)
(-0.0187466 1.79106e-20 0.0029811)
(-0.0209996 -3.34589e-20 0.00344123)
(-0.0224989 -4.58077e-20 0.00379711)
(-0.0225002 0 0.00389342)
(-0.022713 0 0.00403972)
(-0.0203806 1.22303e-19 0.00369548)
(-0.0207813 -2.2362e-19 0.00386438)
(-0.0159429 2.33724e-19 0.00301901)
(-0.0185512 9.1089e-20 0.00360682)
(-0.00968612 0 0.0019842)
(-0.0166825 -1.09983e-19 0.00340872)
(-0.00139705 7.07869e-20 0.000539503)
(-0.0131228 -3.19138e-20 0.00281663)
(0.00298096 -2.88341e-20 -0.000242196)
(0.00466155 0 -0.000623566)
(-0.0173302 0 0.00359872)
(0.0451387 0 -0.00838993)
(-0.00478077 0 0.00210767)
(-0.122042 0 0.0223823)
(0.206201 0 -0.039352)
(-0.0823427 3.28168e-19 0.019159)
(0.0833805 7.03482e-20 -0.0159625)
(-0.224127 -7.20023e-19 0.0435197)
(-0.0197131 0 -0.0104272)
(0.771523 0 -0.14081)
(-1.41183 0 0.2689)
(1.19675 -4.60105e-20 -0.238254)
(0.0797445 -4.49281e-18 -0.00852552)
(-1.79501 -3.64114e-18 0.328067)
(1.70673 0 -0.329009)
(-0.50685 1.4607e-18 0.109552)
(0.151943 0 -0.0333624)
(0.0362193 -5.11529e-18 -0.00704312)
(-0.273172 -5.73967e-18 0.0499974)
(0.851618 -2.35583e-18 -0.143976)
(-4.4797 -1.69555e-18 0.833135)
(4.14604 -2.69971e-18 -0.807944)
(9.88446 1.11684e-20 -1.83028)
(-5.2143 -8.20164e-18 1.00406)
(-5.66233 0 1.06353)
(-0.106273 1.24415e-23 -0.0120136)
(-0.0915596 0 -0.0108284)
(-0.0744603 7.56976e-23 -0.00432633)
(-0.0575347 0 0.000838608)
(-0.0449736 9.28321e-23 0.00271298)
(-0.0373071 2.117e-22 0.00280797)
(-0.0329403 1.27793e-22 0.00236675)
(-0.030652 0 0.00201678)
(-0.0297919 -4.80666e-24 0.00199439)
(-0.029907 4.12433e-22 0.00220507)
(-0.0304901 -4.60971e-22 0.00252345)
(-0.0311365 -5.02993e-22 0.00291195)
(-0.0316483 5.36275e-22 0.00337114)
(-0.0319603 -5.58984e-22 0.00387726)
(-0.0320218 -1.14502e-21 0.00437361)
(-0.0317515 0 0.00479451)
(-0.0310623 5.90223e-24 0.0050881)
(-0.0299091 -1.08341e-21 0.00522759)
(-0.0283246 -1.03865e-21 0.00521318)
(-0.0264248 0 0.00506606)
(-0.024381 0 0.00481771)
(-0.0223746 -8.82857e-22 0.00450163)
(-0.0205629 0 0.00415155)
(-0.0190644 -8.20412e-22 0.00380221)
(-0.0179544 1.62057e-21 0.00348734)
(-0.017254 0 0.00323332)
(-0.0169176 -1.64455e-21 0.00305267)
(-0.0168279 0 0.00294074)
(-0.0168115 1.69864e-21 0.0028782)
(-0.01667 3.40351e-21 0.00283643)
(-0.0162189 3.34829e-21 0.00278427)
(-0.0153162 1.60525e-21 0.00269195)
(-0.013884 -1.48695e-21 0.00253545)
(-0.0119123 -5.27975e-21 0.00229795)
(-0.0094645 -4.42851e-21 0.00197442)
(-0.00666433 0 0.00157092)
(-0.00369292 0 0.00110775)
(-0.000757083 1.53473e-23 0.000613636)
(0.00191738 0 0.0001274)
(0.00413243 -4.09965e-22 -0.000312895)
(0.00571447 0 -0.000666964)
(0.00656749 -2.15935e-21 -0.000906749)
(0.00664203 0 -0.00100855)
(0.00599114 -2.59136e-21 -0.00097035)
(0.00470036 0 -0.000795927)
(0.0029522 2.26918e-21 -0.000514548)
(0.00090654 0 -0.000152779)
(-0.00121816 0 0.00024361)
(-0.00330799 -1.27066e-21 0.000648923)
(-0.00521642 0 0.00102561)
(-0.0069556 0 0.00137087)
(-0.00848379 0 0.00166995)
(-0.00992907 -8.41532e-22 0.00194739)
(-0.0112937 -1.14021e-21 0.00220311)
(-0.0127308 0 0.00247085)
(-0.0141883 0 0.00274372)
(-0.0157673 -4.4475e-22 0.00304487)
(-0.0173239 -8.7733e-22 0.0033496)
(-0.0189026 0 0.00366576)
(-0.0203011 0 0.00395674)
(-0.0215455 0 0.00422183)
(-0.0224395 0 0.00442744)
(-0.0230277 -3.59225e-21 0.0045717)
(-0.0231823 2.81397e-21 0.00463854)
(-0.0229676 -3.22341e-21 0.00462427)
(-0.0223638 0 0.0045396)
(-0.0214124 0 0.00436899)
(-0.020232 0 0.00415741)
(-0.0187886 -8.4218e-23 0.00386459)
(-0.017399 2.06931e-20 0.00358278)
(-0.0159182 2.57989e-20 0.00323809)
(-0.0149511 -6.1536e-20 0.00299187)
(-0.0141947 -4.00469e-23 0.00273116)
(-0.0145733 3.60015e-20 0.00270275)
(-0.0154886 3.50871e-20 0.00273398)
(-0.0180484 0 0.00313472)
(-0.0211476 0 0.00362426)
(-0.0258271 0 0.00451251)
(-0.030487 -1.96537e-20 0.00539423)
(-0.0358912 0 0.00652381)
(-0.0405521 0 0.00748468)
(-0.0445298 3.27469e-20 0.00839497)
(-0.0479209 4.47851e-20 0.00912518)
(-0.048497 0 0.00936118)
(-0.0508909 0 0.00985515)
(-0.0465997 0 0.00909813)
(-0.0506688 2.17613e-19 0.00987344)
(-0.0392526 -2.65898e-23 0.00771428)
(-0.0497918 8.84212e-20 0.00974663)
(-0.0261313 -9.85096e-20 0.00522685)
(-0.0498866 1.06683e-19 0.00985118)
(-0.00691656 6.87191e-20 0.00148247)
(-0.04582 6.18524e-20 0.00914265)
(0.00211224 0 -0.000626154)
(0.000248876 0 0.00038434)
(-0.058296 0 0.0107497)
(0.121223 0 -0.0240289)
(-0.0407419 1.30355e-19 0.0112977)
(-0.33577 0 0.0614375)
(0.60209 0 -0.118598)
(-0.290029 3.3575e-19 0.0589326)
(0.242831 -3.35973e-20 -0.0470732)
(-0.632225 1.37487e-18 0.126381)
(0.047376 1.87016e-18 -0.0229958)
(2.06297 0 -0.374443)
(-3.93933 0 0.76257)
(3.60682 0 -0.737795)
(-0.170867 2.14105e-18 0.0876465)
(-4.76302 3.46529e-18 0.878009)
(4.98164 0 -0.986156)
(-1.88045 -2.77242e-18 0.401933)
(0.590025 -2.84031e-18 -0.130977)
(0.0882854 9.70603e-18 -0.00768418)
(-0.827163 0 0.143581)
(2.13873 0 -0.341809)
(-11.9675 -1.59675e-18 2.25506)
(13.0456 0 -2.75421)
(26.4915 -5.69771e-18 -4.94386)
(-16.0681 7.74026e-18 3.32591)
(-15.2593 0 2.92734)
(-0.106678 0 -0.0130387)
(-0.105082 0 -0.0139896)
(-0.100038 5.24151e-23 -0.0102042)
(-0.0906048 0 -0.00514956)
(-0.07907 0 -0.00162391)
(-0.0682646 -1.00744e-22 4.18001e-05)
(-0.0594761 -1.20991e-22 0.000590579)
(-0.052922 0 0.000850789)
(-0.0485179 -2.67565e-24 0.00121734)
(-0.0459224 -3.9071e-22 0.00163813)
(-0.0445238 8.68212e-22 0.00203525)
(-0.0437494 4.76576e-22 0.00248548)
(-0.0432784 -6.64673e-24 0.00309179)
(-0.0429748 5.29674e-22 0.003851)
(-0.0427173 5.40285e-22 0.00466239)
(-0.042325 -5.34164e-22 0.00540339)
(-0.0415985 1.06109e-21 0.00598415)
(-0.040396 1.02667e-21 0.0063643)
(-0.0386897 0 0.00654668)
(-0.0365777 0 0.0065583)
(-0.034245 -8.79028e-22 0.00642966)
(-0.0318998 -8.35926e-22 0.00618649)
(-0.0297257 0 0.00585635)
(-0.027867 0 0.00547655)
(-0.0264272 -1.53558e-21 0.00509161)
(-0.025456 0 0.00474157)
(-0.0249253 3.1188e-21 0.00445182)
(-0.0247176 -1.58692e-21 0.00423016)
(-0.0246445 0 0.00407215)
(-0.0244865 -1.61105e-21 0.00396631)
(-0.0240401 -1.58499e-21 0.00389754)
(-0.0231467 0 0.0038446)
(-0.0217123 1.40876e-21 0.00378169)
(-0.019707 2.50222e-21 0.00367895)
(-0.0171752 -3.63709e-24 0.00351204)
(-0.0142219 0 0.00326352)
(-0.0110199 0 0.00293246)
(-0.00777209 -5.85798e-22 0.00252783)
(-0.00471699 0 0.00207677)
(-0.00206661 0 0.00160947)
(-2.6717e-05 0 0.00117001)
(0.0012818 0 0.000793506)
(0.00176521 0 0.000523352)
(0.00145292 0 0.000379016)
(0.000386903 0 0.000383631)
(-0.00125496 -2.14568e-21 0.000523109)
(-0.00334307 1.84986e-21 0.000792634)
(-0.00563524 0 0.00114844)
(-0.00803594 1.20217e-21 0.00157359)
(-0.0103484 0 0.00201449)
(-0.0126017 0 0.00246599)
(-0.0146888 -1.08668e-21 0.00288773)
(-0.0167709 0 0.00330306)
(-0.0187801 5.43127e-22 0.00368885)
(-0.0209258 -2.76039e-22 0.00408801)
(-0.0230802 0 0.00447918)
(-0.0254225 4.20389e-22 0.00490521)
(-0.027722 0 0.00533259)
(-0.0301157 0 0.00579081)
(-0.0322982 0 0.00623383)
(-0.0343924 3.49485e-21 0.00667615)
(-0.036087 3.61448e-21 0.00707403)
(-0.0375228 5.06913e-24 0.00743088)
(-0.0384625 -5.31828e-21 0.00772573)
(-0.0390575 -1.3328e-23 0.00794655)
(-0.0392039 0 0.00811179)
(-0.0389983 0 0.00817694)
(-0.0385247 8.96111e-21 0.0082163)
(-0.0377405 -6.07134e-23 0.00813116)
(-0.0370133 0 0.00807515)
(-0.0360886 0 0.00787417)
(-0.0357515 2.89894e-20 0.00779364)
(-0.035447 -3.71458e-23 0.0075661)
(-0.0364545 -2.60103e-23 0.00760093)
(-0.0377455 0 0.00751551)
(-0.0409836 0 0.00786328)
(-0.0444384 5.00396e-20 0.00810801)
(-0.0498753 -3.65631e-20 0.00888997)
(-0.0549255 0 0.00950969)
(-0.0610963 0 0.010595)
(-0.0662423 0 0.0114175)
(-0.0707372 0 0.0124016)
(-0.0748639 0 0.0132035)
(-0.0750894 0 0.0135183)
(-0.0789178 0 0.0143322)
(-0.072267 0 0.013364)
(-0.0797574 -2.04503e-19 0.0148432)
(-0.0617992 -1.06793e-19 0.0116846)
(-0.0803956 -8.31046e-20 0.015257)
(-0.0421478 9.25673e-20 0.00817859)
(-0.0831472 -1.00278e-19 0.0161263)
(-0.0124644 -6.45473e-20 0.00254952)
(-0.0802367 -2.91021e-20 0.016234)
(0.00149838 0 -0.0010135)
(-0.0100568 0 0.00405717)
(-0.0976449 0 0.0170222)
(0.189777 0 -0.0375927)
(-0.0951438 -1.22294e-19 0.0284485)
(-0.516984 0 0.087987)
(0.981129 0 -0.194642)
(-0.535856 -3.14622e-19 0.124513)
(0.404373 0 -0.0768635)
(-1.00219 -6.4277e-19 0.199052)
(0.183683 -1.75254e-18 -0.131528)
(3.13109 0 -0.520198)
(-6.18832 0 1.17654)
(6.02355 0 -1.26848)
(-0.776491 2.01217e-18 0.33695)
(-7.13762 0 1.23711)
(8.09348 -2.64556e-18 -1.62128)
(-3.55287 3.8907e-21 0.803804)
(1.17954 2.65823e-18 -0.283633)
(0.0917995 -9.08491e-18 0.0145808)
(-1.36792 0 0.219384)
(3.14612 2.09242e-18 -0.389408)
(-18.0968 1.49358e-18 3.26155)
(22.3466 -3.04096e-18 -5.09725)
(40.1191 0 -7.10628)
(-27.2396 -7.23743e-18 5.99274)
(-22.925 0 4.31488)
(-0.103764 0 -0.0131134)
(-0.104831 0 -0.0139068)
(-0.106292 -4.95311e-23 -0.0126222)
(-0.105036 0 -0.00971341)
(-0.100218 7.72352e-23 -0.00680006)
(-0.0930341 -1.88506e-22 -0.00475285)
(-0.0848698 0 -0.00341451)
(-0.0768986 2.71923e-22 -0.00220008)
(-0.070082 -3.1962e-22 -0.000903843)
(-0.0648608 -3.61568e-22 0.000223697)
(-0.0610436 -4.0799e-22 0.00103891)
(-0.0581726 4.37775e-22 0.00173863)
(-0.0559282 -4.74259e-22 0.00258092)
(-0.054184 9.72263e-22 0.00361908)
(-0.0528254 0 0.00471853)
(-0.0516352 1.00243e-21 0.00570571)
(-0.0503364 0 0.00646806)
(-0.0486993 0 0.0069742)
(-0.0466244 0 0.00725226)
(-0.0441696 -8.69422e-22 0.00735198)
(-0.0415131 4.6849e-24 0.0073108)
(-0.0388742 2.27145e-24 0.00714579)
(-0.036445 -7.57981e-22 0.00687217)
(-0.0343693 0 0.00652169)
(-0.0327496 0 0.00614088)
(-0.0316392 0 0.00577343)
(-0.031015 -2.95671e-21 0.00544693)
(-0.030755 -4.00174e-24 0.00517263)
(-0.0306585 0 0.00495592)
(-0.030493 0 0.00480188)
(-0.030051 0 0.00471413)
(-0.0291761 0 0.00468419)
(-0.0277807 -2.66393e-21 0.00468974)
(-0.0258356 0 0.00469407)
(-0.0233833 1.98952e-21 0.00466075)
(-0.0205202 0 0.00455625)
(-0.0174135 0 0.00436496)
(-0.0142555 5.70521e-22 0.00408065)
(-0.0112824 0 0.0037208)
(-0.00869705 0 0.00330678)
(-0.00671028 6.83398e-22 0.00288312)
(-0.00543736 -1.87757e-21 0.00248613)
(-0.00498809 0 0.00217154)
(-0.00533077 -2.28989e-21 0.00196757)
(-0.00645009 0 0.00191565)
(-0.00816226 4.05435e-21 0.00200893)
(-0.0103707 3.52354e-24 0.00225896)
(-0.0128169 0 0.00262092)
(-0.0154435 0 0.00308732)
(-0.0180212 -8.88838e-22 0.00359152)
(-0.0206227 -1.3642e-21 0.00413228)
(-0.0230914 2.06304e-21 0.00464996)
(-0.0256424 0 0.00517407)
(-0.0281404 5.27622e-22 0.00566276)
(-0.0308625 2.60568e-22 0.00617229)
(-0.0335947 -3.36631e-23 0.00666643)
(-0.0366008 -3.77137e-22 0.00720803)
(-0.0395461 0 0.00775039)
(-0.0426699 0 0.00834338)
(-0.0455453 -2.83956e-21 0.00892575)
(-0.048412 -6.57217e-21 0.00952752)
(-0.0508255 -3.40908e-21 0.0100899)
(-0.0530542 1.04665e-23 0.0106251)
(-0.0547293 2.5092e-21 0.0111034)
(-0.0561284 1.45763e-21 0.011511)
(-0.0570338 0 0.0118702)
(-0.0576414 0 0.012117)
(-0.0579609 -8.44476e-21 0.0123504)
(-0.0579908 -2.6125e-20 0.0124252)
(-0.0580981 0 0.0125514)
(-0.0579718 -2.27491e-20 0.0124694)
(-0.0585139 -2.72015e-20 0.0125446)
(-0.0589691 -3.00575e-20 0.012373)
(-0.0608977 -6.38086e-20 0.0125234)
(-0.0628854 0 0.012419)
(-0.067075 0 0.0128492)
(-0.0711432 -4.70884e-20 0.0130238)
(-0.0775192 6.8845e-20 0.0138976)
(-0.0830873 1.77203e-20 0.0144576)
(-0.0900764 0 0.0156921)
(-0.0956865 0 0.0165238)
(-0.100645 0 0.0176992)
(-0.105378 0 0.0186032)
(-0.105171 0 0.0190164)
(-0.110277 0 0.0200602)
(-0.101233 -1.05128e-19 0.0188486)
(-0.112019 9.45144e-23 0.0208567)
(-0.0875451 1.00188e-19 0.0167145)
(-0.114152 0 0.0215641)
(-0.0613569 8.68745e-20 0.0119964)
(-0.119745 4.70657e-20 0.0230185)
(-0.021111 0 0.00423804)
(-0.118996 -2.75324e-20 0.0239852)
(-0.00107791 2.37459e-20 -0.0015222)
(-0.0284452 0 0.00944125)
(-0.13593 0 0.0218313)
(0.24785 0 -0.0492592)
(-0.165562 -1.15419e-19 0.0531644)
(-0.663882 0 0.101012)
(1.33296 0 -0.265042)
(-0.821604 -3.15509e-19 0.180738)
(0.571398 2.94728e-20 -0.107597)
(-1.33471 0 0.269857)
(0.392365 0 -0.201279)
(3.9773 0 -0.599982)
(-8.13501 0 1.5287)
(8.38533 0 -1.81495)
(-1.68605 2.5866e-21 0.688341)
(-8.88849 0 1.44751)
(10.9587 2.47563e-18 -2.22281)
(-5.44233 1.20901e-18 1.27177)
(1.92238 0 -0.486416)
(0.0171975 4.71753e-22 0.0651167)
(-1.85616 0 0.273669)
(3.97024 2.24178e-23 -0.35236)
(-22.8382 0 3.95973)
(31.667 2.84316e-18 -7.56544)
(50.6324 0 -8.54996)
(-38.4142 -6.75433e-18 8.80858)
(-28.1795 0 5.23796)
(-0.101957 0 -0.0140569)
(-0.102296 0 -0.0138038)
(-0.104699 0 -0.0132929)
(-0.106805 0 -0.0119069)
(-0.10701 -7.28893e-23 -0.0102987)
(-0.10506 -8.30509e-25 -0.00904504)
(-0.101128 0 -0.00798249)
(-0.0956848 -2.56607e-22 -0.00647394)
(-0.0896509 0 -0.00439424)
(-0.0839457 6.77851e-22 -0.00233938)
(-0.078966 0 -0.000774625)
(-0.074635 -4.13267e-22 0.000454608)
(-0.070819 0 0.00173576)
(-0.0675313 -9.1794e-22 0.00320107)
(-0.0647924 4.58705e-22 0.00468825)
(-0.0624651 -9.29375e-22 0.00596681)
(-0.0602732 9.06976e-22 0.00690379)
(-0.057932 8.82073e-22 0.00749095)
(-0.0552666 0 0.00780181)
(-0.0522734 8.20961e-22 0.00792955)
(-0.0491075 7.80664e-22 0.00793406)
(-0.0460004 1.48603e-21 0.00782955)
(-0.043163 7.15731e-22 0.00761597)
(-0.0407411 0 0.00731356)
(-0.0388271 0 0.00696568)
(-0.0374703 0 0.00661504)
(-0.0366536 1.39814e-21 0.00628561)
(-0.036258 1.42082e-21 0.00598531)
(-0.0360732 0 0.00572439)
(-0.0358498 0 0.00552319)
(-0.03537 -1.41669e-21 0.00540603)
(-0.0344773 0 0.00538082)
(-0.0330919 4.92824e-25 0.00543299)
(-0.0311896 2.23398e-21 0.00552351)
(-0.0288163 -1.87933e-21 0.00560886)
(-0.0260637 0 0.00564411)
(-0.0230969 0 0.00560292)
(-0.0200999 -5.38468e-22 0.00546575)
(-0.0173083 0 0.00524034)
(-0.014915 0 0.00493665)
(-0.0131344 -6.44898e-22 0.00459572)
(-0.0120712 1.77168e-21 0.00424943)
(-0.0118467 0 0.00396042)
(-0.0124181 2.16047e-21 0.00375958)
(-0.0137907 0 0.00370263)
(-0.0157649 -1.91233e-21 0.00378649)
(-0.018273 -1.65175e-21 0.0040393)
(-0.0210315 0 0.00441604)
(-0.0240204 -1.09018e-21 0.00492321)
(-0.0269726 8.38224e-22 0.00548456)
(-0.0300094 2.58781e-21 0.00610859)
(-0.0329207 -9.77721e-22 0.00671854)
(-0.0359851 7.40179e-22 0.00735315)
(-0.0389954 8.26615e-24 0.00794986)
(-0.0423089 0 0.00857778)
(-0.0456173 3.17313e-23 0.00918133)
(-0.0492838 3.55433e-22 0.00984237)
(-0.0528566 -6.94504e-22 0.0104976)
(-0.0566943 1.0375e-21 0.0112183)
(-0.0602306 2.67527e-21 0.0119275)
(-0.0638442 3.08565e-21 0.0126741)
(-0.0669351 -3.17648e-21 0.0133858)
(-0.0699277 2.9989e-21 0.0140869)
(-0.0722948 0 0.0147412)
(-0.0744748 0 0.0153339)
(-0.0761026 -8.18206e-23 0.015894)
(-0.0775151 0 0.016335)
(-0.078608 0 0.0167856)
(-0.0794688 1.22653e-20 0.0170472)
(-0.0804181 0 0.0173944)
(-0.0811417 2.14034e-20 0.0174707)
(-0.082606 5.11147e-20 0.0177549)
(-0.0839117 0 0.017687)
(-0.0868449 2.99821e-20 0.0180151)
(-0.0896604 0 0.0179358)
(-0.0949268 0 0.018501)
(-0.0997747 4.42331e-20 0.0186187)
(-0.107255 -3.23736e-20 0.019599)
(-0.113532 5.19016e-23 0.0200552)
(-0.121536 0 0.0214061)
(-0.127807 0 0.0221517)
(-0.133445 0 0.023471)
(-0.13896 -3.68733e-20 0.0243678)
(-0.138549 4.40789e-20 0.0248737)
(-0.145075 0 0.0260614)
(-0.133872 1.97258e-19 0.0246869)
(-0.148042 9.00311e-20 0.0271594)
(-0.117285 -1.87951e-19 0.0221998)
(-0.151964 -7.29927e-20 0.0282047)
(-0.0847984 -1.62952e-19 0.0163998)
(-0.160717 0 0.030331)
(-0.0340105 0 0.00651031)
(-0.163093 2.58161e-20 0.0325708)
(-0.00666689 -2.2262e-20 -0.00212129)
(-0.0559783 -9.24514e-20 0.0173913)
(-0.173253 0 0.0250187)
(0.292968 0 -0.0580141)
(-0.248905 1.0814e-19 0.084554)
(-0.776347 -3.17921e-19 0.0997954)
(1.64587 0 -0.326625)
(-1.13388 2.95492e-19 0.247432)
(0.749002 -2.7598e-20 -0.14062)
(-1.62898 0 0.334356)
(0.643227 0 -0.275109)
(4.61023 0 -0.606351)
(-9.77532 0 1.79727)
(10.6293 0 -2.35467)
(-2.82119 -1.76463e-18 1.15763)
(-10.028 0 1.47839)
(13.5064 0 -2.75898)
(-7.44366 0 1.79522)
(2.80187 -2.32899e-18 -0.743785)
(-0.159189 3.97317e-18 0.154892)
(-2.24356 0 0.295579)
(4.7085 -1.82939e-18 -0.244507)
(-26.2479 0 4.27573)
(40.5665 2.65532e-18 -10.1467)
(58.0842 0 -9.10051)
(-49.2081 6.3122e-18 11.8654)
(-30.6515 0 5.50679)
(-0.100679 4.00917e-23 -0.0156933)
(-0.100546 4.18249e-23 -0.0147663)
(-0.102188 -4.83086e-23 -0.0141118)
(-0.104444 -5.84871e-23 -0.0132398)
(-0.106361 0 -0.0123862)
(-0.107509 8.47671e-23 -0.0119267)
(-0.107447 0 -0.01159)
(-0.105801 -2.40693e-22 -0.0104952)
(-0.102739 -2.76765e-22 -0.0082863)
(-0.0988806 -6.28931e-22 -0.0056614)
(-0.0947561 3.43917e-22 -0.00342414)
(-0.0905373 -3.72219e-22 -0.00161376)
(-0.0862644 0 0.00019912)
(-0.0821113 0 0.00221698)
(-0.0783149 -4.32445e-22 0.00424124)
(-0.0749508 1.10319e-23 0.0059532)
(-0.0718711 -2.00544e-23 0.0071712)
(-0.0688181 -1.73396e-23 0.00789993)
(-0.0655685 0 0.00826443)
(-0.0620395 0 0.00841898)
(-0.0583327 0 0.00846681)
(-0.0546808 -1.39507e-21 0.00843151)
(-0.051328 -6.74142e-22 0.0082968)
(-0.0484388 0 0.00806428)
(-0.0460972 0 0.00777019)
(-0.0443435 -1.31681e-21 0.00745704)
(-0.0431735 0 0.00714568)
(-0.0424899 0 0.00683762)
(-0.0420883 0 0.00654339)
(-0.0417033 0 0.00629643)
(-0.0410981 -1.97271e-24 0.00614319)
(-0.0401076 0 0.00611094)
(-0.0386575 8.86993e-25 0.00619556)
(-0.0367299 -2.10586e-21 0.00635758)
(-0.0343765 2.6992e-24 0.00654831)
(-0.0316847 0 0.00671339)
(-0.0288185 0 0.00681801)
(-0.0259524 0 0.00683055)
(-0.0233231 0 0.00674989)
(-0.0211128 0 0.00657377)
(-0.0195418 0 0.00633878)
(-0.0187029 0 0.00606991)
(-0.0187306 -1.91776e-21 0.00583489)
(-0.0195682 -2.01881e-21 0.00566423)
(-0.0212437 0 0.00562648)
(-0.0235373 -1.80157e-21 0.00571993)
(-0.0264122 0 0.00598955)
(-0.0295533 0 0.00638947)
(-0.0329813 2.0619e-21 0.00694257)
(-0.0363827 0 0.00756359)
(-0.0399323 -1.2256e-21 0.00827419)
(-0.0433562 0 0.00898065)
(-0.047004 -1.40555e-21 0.00973351)
(-0.0505846 9.29064e-24 0.0104477)
(-0.054546 0 0.0112062)
(-0.0584728 0 0.0119308)
(-0.0628415 0 0.0127227)
(-0.0670682 1.29876e-21 0.0134989)
(-0.0716489 -1.9431e-21 0.0143533)
(-0.0758603 -2.47595e-21 0.0151916)
(-0.0802421 -2.86181e-21 0.0160832)
(-0.0840183 5.95613e-21 0.0169426)
(-0.0877955 2.79e-21 0.0178074)
(-0.0908624 0 0.0186361)
(-0.0938482 0 0.0194125)
(-0.0962102 -4.14036e-25 0.0201742)
(-0.0984602 0 0.0208093)
(-0.100346 0 0.0214803)
(-0.102081 1.14433e-20 0.0219293)
(-0.103904 0 0.0225041)
(-0.105537 0 0.0227406)
(-0.107974 -4.79089e-20 0.0232452)
(-0.11021 2.63856e-20 0.0232868)
(-0.114222 0 0.0238133)
(-0.117968 0 0.0237719)
(-0.124414 0 0.0245055)
(-0.130168 -4.15417e-20 0.0245853)
(-0.13889 0 0.0257159)
(-0.146028 -3.13914e-20 0.0260867)
(-0.155225 1.51485e-21 0.027604)
(-0.162332 0 0.0282738)
(-0.16887 0 0.0297945)
(-0.175357 3.46014e-20 0.0306809)
(-0.175008 -9.39319e-23 0.0313546)
(-0.183142 4.34863e-20 0.0326645)
(-0.170084 -9.24603e-20 0.0312377)
(-0.187796 8.4199e-20 0.0341136)
(-0.151087 8.80844e-20 0.0284693)
(-0.19394 6.84375e-20 0.035557)
(-0.112705 6.59992e-23 0.0217311)
(-0.206307 0 0.0383461)
(-0.0515431 -5.33436e-20 0.00969858)
(-0.212851 0 0.0421379)
(-0.0156471 0 -0.00243804)
(-0.0932751 8.66096e-20 0.0277626)
(-0.209173 0 0.0266232)
(0.32301 0 -0.0632309)
(-0.341222 0 0.120418)
(-0.855503 2.97672e-19 0.0856331)
(1.91187 0 -0.376458)
(-1.45499 2.75984e-19 0.344204)
(0.93764 0 -0.177437)
(-1.89586 0 0.392861)
(0.893237 0 -0.472351)
(5.05374 0 -0.545627)
(-11.1113 0 1.98842)
(12.6909 -3.03738e-20 -2.87612)
(-4.10434 -1.65148e-18 1.70576)
(-10.5901 -2.66635e-18 1.34114)
(15.6767 0 -3.21392)
(-9.44237 0 2.34861)
(3.78549 4.35394e-18 -1.05159)
(-0.454639 0 0.285971)
(-2.47637 -4.15508e-18 0.27235)
(5.43487 0 -0.0884512)
(-28.407 1.20185e-18 4.25479)
(48.6531 -2.48132e-18 -12.7679)
(62.5649 0 -8.82436)
(-59.3366 5.88082e-18 14.6885)
(-30.1168 0 5.09947)
(-0.0993453 -3.77553e-23 -0.017341)
(-0.0993126 -8.73049e-23 -0.0163063)
(-0.100585 4.55045e-23 -0.0155143)
(-0.102273 -5.69849e-24 -0.0147087)
(-0.104116 -7.18722e-23 -0.0140269)
(-0.106095 0 -0.0138425)
(-0.107899 0 -0.0139683)
(-0.108918 2.26643e-22 -0.0134156)
(-0.10876 5.17612e-22 -0.0115298)
(-0.107496 6.45141e-24 -0.00883931)
(-0.105419 -3.23802e-22 -0.00629542)
(-0.102688 3.50446e-22 -0.00413447)
(-0.0993251 -3.59779e-22 -0.00194096)
(-0.0954808 0 0.000562227)
(-0.0914887 0 0.00315887)
(-0.0876452 3.9786e-22 0.00541754)
(-0.0840291 -1.5499e-21 0.00705585)
(-0.0805227 -1.51401e-21 0.00804668)
(-0.0769307 0 0.00854323)
(-0.0731058 0 0.00876294)
(-0.0690607 0 0.00887437)
(-0.0649916 3.76349e-24 0.00893295)
(-0.0611745 1.26917e-21 0.00891175)
(-0.0578177 -6.24148e-22 0.00878464)
(-0.0550119 -1.24252e-21 0.00857316)
(-0.0527832 2.48974e-21 0.00832197)
(-0.0511401 -1.26571e-21 0.00805485)
(-0.0500291 -1.28321e-21 0.00776686)
(-0.0492817 -1.29403e-21 0.0074627)
(-0.0486301 0 0.00718349)
(-0.0478126 1.25933e-21 0.00699771)
(-0.0466425 -1.2044e-21 0.0069552)
(-0.0450451 1.11463e-21 0.00706552)
(-0.0430095 1.97523e-21 0.00729014)
(-0.0405975 3.32519e-21 0.00757616)
(-0.0378942 0 0.00786068)
(-0.0350636 0 0.00810231)
(-0.0322695 4.84795e-22 0.00825884)
(-0.02975 0 0.00832196)
(-0.0276753 2.61294e-22 0.00827742)
(-0.026273 5.52317e-22 0.00815776)
(-0.0256216 0 0.0079797)
(-0.0258715 3.59863e-21 0.0078154)
(-0.0269487 1.89982e-21 0.00769244)
(-0.0289078 0 0.00769123)
(-0.0315056 1.6952e-21 0.00780845)
(-0.0347416 1.47408e-21 0.00810574)
(-0.038264 0 0.00853434)
(-0.0421408 -1.95583e-21 0.00913533)
(-0.0460046 7.67197e-22 0.00981364)
(-0.0500915 1.18604e-21 0.0106075)
(-0.0540535 0 0.011406)
(-0.0583199 -1.29662e-23 0.0122752)
(-0.0625023 -9.23411e-22 0.0131063)
(-0.0671516 0 0.0139987)
(-0.0717292 0 0.014849)
(-0.0768402 -2.92654e-22 0.0157789)
(-0.0817504 -6.06507e-22 0.016683)
(-0.0871127 1.80779e-21 0.0176779)
(-0.0920262 2.32746e-21 0.0186505)
(-0.0972153 2.68994e-21 0.0196909)
(-0.101705 -2.78913e-21 0.020701)
(-0.10631 -5.22233e-21 0.0217314)
(-0.11011 0 0.0227382)
(-0.113952 0 0.0237005)
(-0.117088 1.51696e-22 0.0246705)
(-0.120233 0 0.0255036)
(-0.12296 0 0.0264066)
(-0.125636 -1.07478e-20 0.0270492)
(-0.128393 0 0.0278688)
(-0.131012 1.87181e-20 0.028274)
(-0.134497 7.00119e-23 0.0290239)
(-0.137755 -2.47711e-20 0.0291868)
(-0.142943 0 0.029947)
(-0.147728 0 0.0299605)
(-0.155479 0 0.0309101)
(-0.16227 -3.8831e-20 0.0309726)
(-0.172391 0 0.0323105)
(-0.180545 1.47362e-20 0.0326116)
(-0.191134 -2.8796e-21 0.0343545)
(-0.199264 0 0.0349485)
(-0.206949 0 0.036729)
(-0.214618 0 0.0375803)
(-0.21463 -9.89363e-23 0.0384906)
(-0.224594 -4.07673e-20 0.0398714)
(-0.210026 -8.63756e-20 0.0384968)
(-0.231481 -7.89149e-20 0.0416855)
(-0.189193 8.23237e-20 0.0355359)
(-0.240374 0 0.0435314)
(-0.14543 7.14794e-20 0.0279688)
(-0.256875 0 0.0470142)
(-0.0741735 4.99651e-20 0.0137733)
(-0.26866 0 0.0526607)
(-0.0284965 0 -0.00254)
(-0.140864 0 0.0407448)
(-0.243397 9.10034e-20 0.0263178)
(0.336046 3.60197e-20 -0.0643713)
(-0.437886 0 0.160635)
(-0.905211 -2.787e-19 0.0576582)
(2.12222 -2.57206e-19 -0.41227)
(-1.77698 -2.58232e-19 0.425768)
(1.13768 2.42847e-20 -0.218642)
(-2.13949 0 0.449974)
(1.15931 0 -0.616365)
(5.32907 0 -0.422649)
(-12.1566 0 2.09855)
(14.5157 2.84067e-20 -3.36203)
(-5.44905 1.55818e-21 2.32599)
(-10.6406 4.98472e-18 1.04306)
(17.4291 0 -3.57081)
(-11.3195 0 2.90547)
(4.82607 -2.03433e-18 -1.40227)
(-0.87383 0 0.463113)
(-2.50516 3.88293e-18 0.191078)
(6.1911 0 0.100074)
(-29.449 -2.23692e-18 3.90752)
(55.6256 0 -15.2874)
(64.2209 0 -7.71635)
(-68.2947 -5.49364e-18 17.9289)
(-26.6395 0 3.95848)
(-0.0979841 0 -0.0188682)
(-0.09817 4.50732e-23 -0.0179797)
(-0.0995832 0 -0.0172409)
(-0.100997 5.71963e-23 -0.0164412)
(-0.102455 1.40567e-22 -0.0156975)
(-0.104259 0 -0.0154262)
(-0.106419 -9.40627e-23 -0.0156034)
(-0.10852 0 -0.015345)
(-0.110036 -3.83815e-24 -0.0138434)
(-0.110685 5.32827e-22 -0.0113727)
(-0.110502 0 -0.00883162)
(-0.109566 0 -0.00658464)
(-0.107812 3.38384e-22 -0.00426748)
(-0.105207 0 -0.0015217)
(-0.101955 0 0.00148769)
(-0.0984117 0 0.00425799)
(-0.0948452 7.18213e-22 0.00638343)
(-0.0913368 7.0283e-22 0.00774904)
(-0.087808 6.64416e-22 0.00848061)
(-0.0841063 0 0.00882725)
(-0.0801437 0 0.00902907)
(-0.0760195 6.12718e-22 0.00920304)
(-0.0719988 -5.96657e-22 0.0093315)
(-0.0683457 5.8702e-22 0.00935518)
(-0.065188 1.16861e-21 0.00926596)
(-0.062541 -2.36219e-21 0.00910838)
(-0.060412 -1.16467e-23 0.00891926)
(-0.0588013 1.20685e-21 0.00869273)
(-0.0576157 1.21701e-21 0.00842085)
(-0.0566204 0 0.00814172)
(-0.0555355 0 0.00794199)
(-0.0541387 1.13266e-21 0.00789726)
(-0.0523411 0 0.00803588)
(-0.0501351 -1.85748e-21 0.00832268)
(-0.0475971 -1.56103e-21 0.00870131)
(-0.0448143 1.20909e-21 0.00910049)
(-0.0419545 0 0.00947373)
(-0.0391702 -4.5584e-22 0.00976948)
(-0.0367028 -8.54842e-23 0.00997437)
(-0.0347082 -2.09312e-24 0.0100627)
(-0.0334239 -1.03463e-21 0.010064)
(-0.0329109 0 0.00998576)
(-0.0333384 -1.68635e-21 0.00990483)
(-0.0346112 0 0.0098436)
(-0.0368154 0 0.00989409)
(-0.0396796 0 0.0100481)
(-0.0432472 2.87674e-24 0.0103842)
(-0.0471234 0 0.0108477)
(-0.0514328 9.22944e-22 0.0114997)
(-0.0557453 -1.45126e-21 0.0122336)
(-0.0603691 -1.11454e-21 0.0131073)
(-0.0648693 0 0.0139919)
(-0.0697678 6.38386e-22 0.0149727)
(-0.0745631 8.88864e-22 0.0159162)
(-0.0799243 0 0.0169412)
(-0.0851707 0 0.0179172)
(-0.0910548 2.74907e-22 0.0189883)
(-0.0966703 5.52557e-22 0.0200238)
(-0.102849 -8.44346e-22 0.0211639)
(-0.10849 -2.142e-21 0.0222751)
(-0.114526 0 0.023468)
(-0.119761 0 0.0246334)
(-0.125242 2.51283e-23 0.0258321)
(-0.129816 -1.90064e-21 0.0270229)
(-0.134569 0 0.028174)
(-0.13853 -7.41765e-23 0.0293618)
(-0.142633 0 0.0303968)
(-0.146262 0 0.0315463)
(-0.149952 0 0.0323875)
(-0.153719 0 0.0334725)
(-0.157408 -5.82744e-23 0.0340525)
(-0.162038 7.16421e-23 0.035076)
(-0.166413 2.30841e-20 0.0353681)
(-0.172899 0 0.0364005)
(-0.178836 2.39176e-20 0.0364803)
(-0.188043 0 0.0376979)
(-0.196004 3.64118e-20 0.0377581)
(-0.207713 -2.6611e-20 0.0393681)
(-0.217047 1.37857e-20 0.0396137)
(-0.229262 1.3673e-21 0.0416551)
(-0.238613 0 0.0421768)
(-0.247729 2.18721e-20 0.0442948)
(-0.256816 0 0.0450945)
(-0.257526 -3.61582e-20 0.0463305)
(-0.269586 -3.80028e-20 0.0477384)
(-0.253891 8.09169e-20 0.0465383)
(-0.279344 0 0.0499518)
(-0.231897 -1.54063e-19 0.0434805)
(-0.291612 0 0.0522372)
(-0.183383 6.6739e-20 0.0351927)
(-0.312899 0 0.0563036)
(-0.102403 4.66728e-20 0.0189905)
(-0.331031 0 0.0642435)
(-0.0457602 -1.80332e-20 -0.00221365)
(-0.199406 -7.61247e-20 0.0563587)
(-0.27578 -8.51607e-20 0.0241735)
(0.33016 -3.37039e-20 -0.0608879)
(-0.534718 0 0.202987)
(-0.93098 5.21325e-19 0.0179628)
(2.27208 4.81004e-19 -0.432192)
(-2.07754 0 0.516707)
(1.3436 -2.27118e-20 -0.263903)
(-2.36996 0 0.503076)
(1.41088 0 -0.80386)