/*--------------------------------*- C++ -*----------------------------------*\
| =========                 |                                                 |
| \\      /  F ield         | OpenFOAM: The Open Source CFD Toolbox           |
|  \\    /   O peration     | Version:  2412                                  |
|   \\  /    A nd           | Website:  www.openfoam.com                      |
|    \\/     M anipulation  |                                                 |
\*---------------------------------------------------------------------------*/
FoamFile
{
    version     2.0;
    format      ascii;
    arch        "LSB;label=32;scalar=64";
    class       surfaceScalarField;
    location    "0.335";
    object      ddtCorrDdt0(phi);
}
// * * * * * * * * * * * * * * * * * * * * * * * * * * * * * * * * * * * * * //

dimensions      [0 3 -2 0 0 0 0];

oriented        oriented;

internalField   nonuniform List<scalar> 
24930
(
-0.000824547
0.000982443
-0.0013188
-0.0002239
0.00102301
-0.000174206
0.000351369
-0.000215949
4.23369e-05
-0.000232868
-2.4301e-06
-0.000329798
-0.000129179
-0.000416288
-0.000250791
-0.000411513
-0.000285894
-0.000353449
-0.000216722
-0.000306708
-0.000131206
-0.000310693
-9.27295e-05
-0.00035187
-0.000110161
-0.000383566
-0.000146446
-0.000367375
-0.000156925
-0.00030125
-0.000126136
-0.000217398
-7.66017e-05
-0.000156936
-4.56206e-05
-0.000142066
-5.22917e-05
-0.000164859
-8.32655e-05
-0.00019765
-0.000106463
-0.000214488
-9.75038e-05
-0.000207029
-5.62204e-05
-0.000185123
-3.07733e-06
-0.000165151
3.73792e-05
-0.000157346
5.16526e-05
-0.000161171
4.18095e-05
-0.000169315
1.99477e-05
-0.00017452
-8.65959e-07
-0.000173629
-1.27916e-05
-0.000167434
-1.43045e-05
-0.000158433
-7.74152e-06
-0.000148902
3.46189e-06
-0.000140155
1.62209e-05
-0.000132419
2.79092e-05
-0.000124939
3.66603e-05
-0.000116367
4.18901e-05
-0.000105843
4.48518e-05
-9.40682e-05
4.75777e-05
-8.33742e-05
5.11891e-05
-7.59771e-05
5.42822e-05
-7.17193e-05
5.39318e-05
-6.73618e-05
4.82753e-05
-5.89507e-05
3.9126e-05
-4.56613e-05
3.15549e-05
-3.14558e-05
2.98408e-05
-2.22895e-05
3.39541e-05
-2.01534e-05
3.79827e-05
-2.03922e-05
3.66011e-05
-1.4776e-05
2.82894e-05
-4.41832e-07
2.09307e-05
1.65419e-05
2.08705e-05
2.43731e-05
3.20892e-05
1.85822e-05
4.38443e-05
6.03394e-06
4.8686e-05
1.63926e-06
3.88949e-05
1.03517e-05
2.77617e-05
2.38097e-05
2.35554e-05
2.50334e-05
3.62976e-05
1.13338e-05
5.01144e-05
-3.93537e-06
5.14864e-05
-1.78053e-06
3.05614e-05
1.72247e-05
1.77458e-06
3.20219e-05
-6.41472e-06
2.5563e-05
1.18367e-05
2.90663e-06
5.51952e-05
-6.54117e-06
7.28199e-05
7.19316e-07
6.95955e-05
7.9099e-06
2.47982e-05
-2.22643e-05
2.2249e-06
-7.08014e-05
-1.83994e-05
-9.99792e-05
-1.90205e-05
-7.96135e-05
-3.75485e-05
-4.23265e-05
-5.82494e-05
-4.07126e-05
-2.58392e-05
-4.93526e-05
-2.51646e-06
-3.28394e-05
2.39335e-05
4.47093e-05
-6.86754e-05
5.44746e-05
-6.67308e-05
-9.32255e-05
0.000117924
-0.000353798
0.000416411
-0.000487296
0.000358818
-0.000239765
-0.000406232
0.00015947
-0.00118746
0.000299639
-0.000887889
-5.39249e-05
0.000394109
-0.000522292
0.00143306
-0.000467078
0.000684141
-5.17003e-05
-0.000707385
0.000198563
-0.00113002
0.000120631
-0.000338663
7.2936e-05
0.000253008
0.000421735
-8.14014e-05
0.000453767
0.000352612
-0.00045461
0.00159329
-0.00113108
0.00165454
-0.000764545
0.000238524
0.00022354
-0.00192356
9.11582e-05
-0.00167294
-0.00173184
0.00091336
-0.00407228
0.00490989
-0.00483453
0.00148036
-0.0036846
-0.00237504
-0.00251836
-0.00339011
-0.00236696
-0.00175925
-0.00280715
0.000794879
-0.00324888
0.00205231
-0.00329889
0.00150211
-0.00371272
0.00178569
-0.00492403
0.00223549
-0.00549557
0.00057062
-0.00365113
-0.00344739
0.00047649
-0.00672409
0.00546387
-0.00809554
0.0103555
-0.00855139
0.0127523
-0.00293968
0.0121634
0.00299259
0.00728774
0.00924194
0.000772135
0.0118157
-0.00756956
0.0129579
0.00657921
0.000261467
0.00171654
-0.00157371
0.000337115
0.00181429
7.88372e-05
0.000859
-0.000215897
0.000321209
-0.000451611
4.16483e-05
-0.000662045
-0.000170085
-0.000778315
-0.000282057
-0.000792692
-0.000273052
-0.000751152
-0.000199145
-0.00072355
-0.000143515
-0.000743654
-0.000138136
-0.000791979
-0.000158133
-0.000820146
-0.000158676
-0.000792461
-0.0001189
-0.000710999
-6.01502e-05
-0.000610069
-2.76885e-05
-0.000530413
-5.07943e-05
-0.000494194
-0.00011456
-0.000496318
-0.000168288
-0.000513998
-0.000163276
-0.000524842
-8.78173e-05
-0.000520225
2.70968e-05
-0.00050619
0.000131079
-0.000494126
0.000185366
-0.000490419
0.000180442
-0.000492858
0.000133599
-0.000494397
7.37743e-05
-0.000489126
2.55788e-05
-0.000475475
9.07806e-07
-0.000455545
-6.08026e-07
-0.000432709
1.39778e-05
-0.00040972
3.64251e-05
-0.00038809
6.02862e-05
-0.000368045
8.12771e-05
-0.000348726
9.71852e-05
-0.000328672
0.000107558
-0.000307062
0.000113565
-0.000284802
0.000116446
-0.000264533
0.000116275
-0.000248613
0.000111227
-0.000236708
9.96396e-05
-0.00022509
8.23278e-05
-0.000209302
6.36834e-05
-0.000188368
4.92863e-05
-0.000166506
4.11722e-05
-0.000150211
3.67015e-05
-0.000141644
2.96039e-05
-0.000136167
1.92544e-05
-0.000125153
9.26542e-06
-0.000106206
1.02389e-05
-8.56287e-05
2.11888e-05
-7.61401e-05
3.76932e-05
-8.10899e-05
4.14525e-05
-9.30357e-05
3.4646e-05
-9.50174e-05
2.03435e-05
-8.34761e-05
2.3831e-05
-6.7399e-05
3.90941e-05
-6.68051e-05
6.05619e-05
-8.32827e-05
5.71808e-05
-0.000102815
3.53149e-05
-0.000104049
1.11116e-05
-8.78843e-05
1.06847e-05
-7.80403e-05
3.8185e-05
-9.11131e-05
5.28807e-05
-0.000124668
6.00188e-05
-0.000142393
3.39523e-05
-0.000146766
5.44617e-05
-0.000147026
5.41697e-05
-0.000189675
6.35093e-05
-0.000242587
-2.25428e-05
-0.0002711
-9.60193e-05
-0.00023729
-0.000121083
-0.000176416
-7.37218e-05
-0.00015393
4.68364e-06
-0.000133011
-7.89585e-05
-0.000115285
-8.29412e-05
-5.64995e-05
-7.07667e-05
-0.000148984
0.000252749
-0.000456009
0.000484279
-0.000883133
0.000438541
-0.00104676
-8.65239e-05
-0.000517886
-0.0010932
0.000281059
-0.00124008
0.0005846
-0.000381326
-0.000163048
0.00112636
-0.00124115
0.00166776
-0.00127306
0.000134483
-0.000395221
-0.00131149
0.000422171
-0.00137629
0.000516877
-0.000362348
0.000393095
0.000254112
0.000936436
-0.000239501
0.000788515
0.00109838
-0.00133113
0.00360375
-0.00295713
0.00237753
-0.0021698
-0.00033334
-0.000326804
-0.00197129
-0.0012362
0.00231895
-0.00646094
0.00689164
-0.0128277
0.0108519
-0.0147729
0.00301367
-0.0123313
-0.00457156
-0.00891646
-0.00636517
-0.00768862
-0.00327899
-0.0083745
2.31237e-05
-0.00989275
0.00223264
-0.011059
0.0024314
-0.013278
0.00452774
-0.0167945
0.00596766
-0.0174085
0.000385277
-0.0105694
-0.0121504
0.00273548
-0.0222065
0.0183652
-0.0245877
0.0318128
-0.0228354
0.0368832
-0.00722964
0.0317566
0.0100958
0.0153064
0.0281537
-0.00575987
0.0354397
-0.0294853
0.0402521
0.0182555
0.00111379
0.00178056
-0.00187038
0.000974457
0.00170432
0.000734399
0.00111167
0.000364273
0.000615658
-4.13633e-05
0.000285208
-0.000387322
4.90048e-05
-0.00060522
-6.79639e-05
-0.000703509
-8.56579e-05
-0.000740182
-7.14537e-05
-0.000777662
-8.10811e-05
-0.000843055
-0.000116045
-0.000917846
-0.000136728
-0.000960758
-0.000110209
-0.000943341
-4.38921e-05
-0.000870711
1.53757e-05
-0.000775622
1.4032e-05
-0.000695814
-6.34175e-05
-0.000653471
-0.000172603
-0.000648558
-0.000234593
-0.000665731
-0.000192027
-0.000687283
-5.00451e-05
-0.000703492
0.000129506
-0.000714786
0.000270519
-0.000726131
0.000325918
-0.00073971
0.000294627
-0.000752203
0.000210153
-0.000757739
0.00011611
-0.000752499
4.53438e-05
-0.000736849
1.1323e-05
-0.000714172
1.0933e-05
-0.000688472
3.28654e-05
-0.000662705
6.50569e-05
-0.000638393
9.85892e-05
-0.000615681
0.000128008
-0.000593587
0.000150821
-0.000570537
0.000166418
-0.000545695
0.000175549
-0.000520104
0.000178552
-0.00049663
0.000174831
-0.000477752
0.00016268
-0.000462986
0.000141833
-0.000448175
0.000114946
-0.000428402
8.75693e-05
-0.000402558
6.505e-05
-0.000375193
4.82151e-05
-0.000353437
3.44431e-05
-0.000339876
1.87608e-05
-0.000329959
4.12685e-06
-0.000314783
-5.28285e-06
-0.00029207
7.68146e-07
-0.000268372
1.47545e-05
-0.000256941
3.11308e-05
-0.000260539
2.88366e-05
-0.000270955
1.94267e-05
-0.000269917
6.05384e-06
-0.000254666
2.01815e-05
-0.000235307
4.30165e-05
-0.000234206
6.93974e-05
-0.000252373
5.96323e-05
-0.000274878
3.26755e-05
-0.000278016
7.08558e-06
-0.000263427
1.26862e-05
-0.000256527
5.11823e-05
-0.000275334
6.7986e-05
-0.000317427
8.60784e-05
-0.000342555
5.66211e-05
-0.000354615
9.41882e-05
-0.000359596
7.25733e-05
-0.000409191
6.95566e-05
-0.000462071
-6.97681e-05
-0.000484559
-0.000160323
-0.000430561
-0.000192318
-0.000342809
-0.000140555
-0.00029479
-4.02192e-05
-0.000250952
-0.000162439
-0.000238473
-8.33796e-05
-0.000214852
-9.47632e-06
-0.000422888
0.000528471
-0.000893261
0.000815557
-0.0014793
0.000655856
-0.00162846
-0.000257239
-0.000785677
-0.00192796
0.00040631
-0.00215689
0.000788922
-0.000573744
-0.00044588
0.00226219
-0.00211965
0.0030426
-0.00215543
5.66405e-05
-0.000750863
-0.00259108
0.000600284
-0.00277124
0.000768956
-0.000610191
0.000544367
0.000724011
0.00125387
-0.000399049
0.000755309
0.00202457
-0.00272937
0.00710143
-0.00930263
0.00864094
-0.00402601
-0.00507856
-0.00152603
-0.00312944
-0.00371736
0.00580317
-0.0128511
0.0180214
-0.0234727
0.0216553
-0.0264556
0.00598512
-0.0221087
-0.00884555
-0.0164483
-0.0123423
-0.0143026
-0.0061874
-0.0154705
0.000502159
-0.018272
0.00509328
-0.0207935
0.00567771
-0.0250185
0.0096457
-0.030491
0.0116548
-0.0301023
-0.000758994
-0.0169114
-0.0269427
0.00641793
-0.0472975
0.0325348
-0.0519638
0.0531218
-0.0439508
0.0583023
-0.0115232
0.0456929
0.0235223
0.0153506
0.0609641
-0.0219397
0.075461
-0.0601672
0.0822009
0.0348923
0.00140922
0.00138419
-0.00206454
0.00135295
0.00146109
0.00124416
0.00118325
0.000966338
0.00083782
0.000587548
0.000585576
0.000214943
0.00042237
-7.7701e-05
0.00032056
-0.000284496
0.000247372
-0.000436892
0.000169226
-0.000571089
7.05334e-05
-0.000702907
-1.71456e-05
-0.000820245
-4.72903e-05
-0.000896041
-8.59751e-06
-0.000911551
6.16343e-05
-0.000872319
0.000100164
-0.000805408
5.59904e-05
-0.000742853
-7.07892e-05
-0.000706363
-0.000214157
-0.000702566
-0.000276201
-0.000726537
-0.000195286
-0.000767905
6.88402e-06
-0.000816494
0.000240026
-0.000865692
0.000405757
-0.000912005
0.000452571
-0.000952228
0.000390617
-0.000981987
0.000269786
-0.000997351
0.000146074
-0.000997399
5.74608e-05
-0.000984898
1.68002e-05
-0.000964624
1.76509e-05
-0.00094111
4.5134e-05
-0.000917376
8.45458e-05
-0.000894844
0.000125563
-0.000873525
0.000162195
-0.000852293
0.000191843
-0.000829455
0.00021357
-0.000804174
0.0002274
-0.000777639
0.000232515
-0.000752943
0.000227544
-0.000732676
0.000210873
-0.000716184
0.000183511
-0.00069889
0.000149614
-0.000675463
0.000115445
-0.00064477
8.59495e-05
-0.000611822
6.10403e-05
-0.000584516
3.88448e-05
-0.000565897
1.60662e-05
-0.000551473
-9.05992e-07
-0.000531948
-8.38856e-06
-0.000505116
3.02685e-06
-0.000477738
1.92195e-05
-0.000463703
3.50591e-05
-0.00046523
2.70943e-05
-0.000473494
1.65255e-05
-0.000468951
4.31303e-06
-0.000449782
2.80831e-05
-0.000427203
5.61526e-05
-0.000425892
8.74358e-05
-0.000446124
7.37305e-05
-0.000471856
4.6348e-05
-0.000477044
2.16116e-05
-0.000464013
3.22737e-05
-0.000460163
7.94808e-05
-0.00048468
9.8648e-05
-0.000535189
0.00013244
-0.000566934
0.000101238
-0.000585272
0.000153241
-0.000592843
9.8047e-05
-0.000646714
7.70352e-05
-0.000696648
-0.000118951
-0.000709868
-0.000221691
-0.000633254
-0.000268057
-0.00051779
-0.0002233
-0.000446916
-0.000104248
-0.000387312
-0.000253224
-0.000392058
-5.17905e-05
-0.000419335
0.000107582
-0.000757231
0.000905567
-0.0013955
0.00126911
-0.00212592
0.00100337
-0.00222428
-0.000439721
-0.00104268
-0.00304878
0.000513443
-0.00342293
0.000886239
-0.000804274
-0.000911688
0.00387441
-0.00316347
0.00500167
-0.00312371
-1.85381e-05
-0.00115427
-0.00438434
0.000667684
-0.00460675
0.000811954
-0.000829812
0.000447781
0.00136162
0.00124297
-0.000587237
0.000185328
0.00346979
-0.00480536
0.0119164
-0.00830087
0.0115948
-0.00656086
-0.00591738
-0.00362163
-0.0046031
-0.00762525
0.0109057
-0.0212592
0.0329724
-0.0353141
0.0357143
-0.0395338
0.0101525
-0.0331347
-0.0150138
-0.0252476
-0.020359
-0.0223628
-0.00975763
-0.0242535
0.00172533
-0.0285722
0.00950312
-0.0326824
0.0105645
-0.0390005
0.0168877
-0.0459209
0.0187815
-0.0434543
-0.00390506
-0.0227495
-0.0489905
0.011136
-0.0826117
0.0470592
-0.0885338
0.0729754
-0.0701686
0.0754897
-0.0131931
0.052448
0.0494318
0.0060064
0.109793
-0.0487295
0.13277
-0.100603
0.137789
0.0550345
0.00154923
0.00126308
-0.00207265
0.00151915
0.00132761
0.00148574
0.00117135
0.00135162
0.00096439
0.00111917
0.000848058
0.000845391
0.000798586
0.000567413
0.000745252
0.00029969
0.000644642
5.11726e-05
0.000489735
-0.00017392
0.000309723
-0.00037229
0.000168106
-0.000537853
0.000119775
-0.000659801
0.000157486
-0.000728511
0.000217167
-0.000745849
0.000224959
-0.000728652
0.000138561
-0.00070055
-2.79467e-05
-0.000681475
-0.000197234
-0.000684571
-0.000261255
-0.000717407
-0.000153378
-0.000780835
9.49128e-05
-0.000867228
0.000369902
-0.000962973
0.000551981
-0.00105394
0.000585063
-0.00112934
0.000490828
-0.00118291
0.000335347
-0.00121303
0.000185326
-0.00122245
8.14118e-05
-0.0012169
3.40449e-05
-0.00120276
3.31078e-05
-0.00118507
6.10306e-05
-0.00116681
0.000101834
-0.00114923
0.000144989
-0.00113215
0.000184658
-0.0011143
0.000218329
-0.00109388
0.000244577
-0.00107005
0.000262439
-0.00104416
0.000269702
-0.00101953
0.00026408
-0.00099883
0.000243904
-0.00098121
0.000211224
-0.000961698
0.000171389
-0.000934628
0.000131092
-0.000898974
9.48622e-05
-0.000860302
6.18897e-05
-0.000827358
3.14354e-05
-0.000803613
1.90117e-06
-0.00078462
-1.69795e-05
-0.000760586
-2.25157e-05
-0.000729394
-5.98494e-06
-0.000697965
1.18799e-05
-0.00068097
2.70948e-05
-0.000680077
1.33778e-05
-0.000686042
1.74225e-06
-0.000678017
-1.00987e-05
-0.000655308
2.25321e-05
-0.000630141
5.49598e-05
-0.000629521
9.18624e-05
-0.000652766
7.57435e-05
-0.000682573
5.03186e-05
-0.000690549
2.79368e-05
-0.000679592
4.41692e-05
-0.000679401
0.00010031
-0.000709866
0.000122007
-0.000768913
0.000173513
-0.000806364
0.000140502
-0.000829539
0.000206985
-0.000837209
0.000112584
-0.000892584
7.04796e-05
-0.00093655
-0.00018749
-0.000937566
-0.000302261
-0.000836911
-0.000365778
-0.000694209
-0.000330294
-0.000605614
-0.000188751
-0.000539243
-0.000354864
-0.000575233
5.6252e-06
-0.00066862
0.000285142
-0.00114771
0.00139747
-0.00195342
0.00185068
-0.00280854
0.00144748
-0.00282468
-0.000687571
-0.00129518
-0.00445469
0.000577489
-0.0049324
0.000845602
-0.000940688
-0.00157509
0.00599769
-0.00437253
0.00745573
-0.00418791
-0.000179366
-0.00164916
-0.00666003
0.000551563
-0.00675828
0.000566339
-0.000935548
4.94503e-06
0.00219251
0.000772404
-0.000695464
-0.00105678
0.00562741
-0.00768662
0.0181811
-0.0121345
0.0156188
-0.00991872
-0.00714021
-0.00688622
-0.00609309
-0.0132991
0.0181559
-0.0312191
0.0525958
-0.0496066
0.0533236
-0.0541475
0.0146987
-0.0455019
-0.0230925
-0.0354536
-0.0302233
-0.032033
-0.0137768
-0.034885
0.00387587
-0.0409658
0.0156452
-0.0468709
0.0172509
-0.0552586
0.026131
-0.0629821
0.0266212
-0.0573684
-0.0100179
-0.028231
-0.0788476
0.0163213
-0.127788
0.060847
-0.133182
0.0899029
-0.0988903
0.0867614
-0.00927224
0.0505536
0.086391
-0.0138548
0.175469
-0.0870478
0.207538
-0.151732
0.205492
0.0769225
0.00161112
0.00126455
-0.00207025
0.00154252
0.00125919
0.00154366
0.00114552
0.00154438
0.00105422
0.00147855
0.00105645
0.00133819
0.00109627
0.00113057
0.00108471
0.000868549
0.000981349
0.000587105
0.000791688
0.000322485
0.000568022
9.25908e-05
0.000392668
-0.000102339
0.000327982
-0.000266121
0.000359234
-0.000395315
0.000404998
-0.000483217
0.00038448
-0.000531637
0.000265869
-0.000553268
7.43279e-05
-0.000564486
-0.000112759
-0.000582158
-0.000187419
-0.000624951
-7.44476e-05
-0.000707864
0.000198986
-0.000831195
0.000505619
-0.000977551
0.000703623
-0.00112137
0.000726367
-0.00124149
0.00060333
-0.00132762
0.00041617
-0.00137982
0.000242232
-0.00140485
0.000123947
-0.00141191
6.8336e-05
-0.00140925
6.14484e-05
-0.00140246
8.38515e-05
-0.00139442
0.00011956
-0.00138618
0.000158968
-0.00137737
0.000197059
-0.00136656
0.000231618
-0.00135183
0.000260628
-0.00133237
0.000281934
-0.0013097
0.000291715
-0.00128734
0.000286579
-0.001268
0.000264587
-0.0012506
0.000228546
-0.00122983
0.000184682
-0.00119979
0.00013981
-0.0011597
9.79614e-05
-0.00111576
5.76391e-05
-0.00107757
1.95644e-05
-0.00104897
-1.61658e-05
-0.00102554
-3.63233e-05
-0.00099694
-3.9679e-05
-0.000961233
-1.78549e-05
-0.0009255
1.43818e-06
-0.000905346
1.62137e-05
-0.000901863
-3.51138e-06
-0.000905566
-1.61448e-05
-0.000894241
-2.85232e-05
-0.000868501
1.27875e-05
-0.000841466
4.93041e-05
-0.000842512
9.3501e-05
-0.000869782
7.68356e-05
-0.000904578
5.59097e-05
-0.000916148
3.73205e-05
-0.000907797
5.95617e-05
-0.000911856
0.000125214
-0.000948319
0.000148755
-0.00101575
0.000219449
-0.00105752
0.00018201
-0.00108362
0.000262762
-0.00108838
0.000122111
-0.00114212
5.68323e-05
-0.00117697
-0.000269981
-0.00116304
-0.000397597
-0.00103786
-0.000480773
-0.000869703
-0.00045508
-0.000770632
-0.000280918
-0.000708022
-0.000453775
-0.000789943
0.000106712
-0.000962851
0.000538089
-0.00158996
0.00201729
-0.00255767
0.00255699
-0.0035155
0.00195533
-0.003427
-0.00103262
-0.00156042
-0.00612344
0.000562079
-0.00662327
0.000631963
-0.00088677
-0.00244944
0.00868309
-0.00575129
0.0103195
-0.0053733
-0.000498888
-0.00230083
-0.00935934
0.000157199
-0.00911125
-6.74378e-05
-0.000812118
-0.000903697
0.003309
-0.000321267
-0.000560516
-0.00314368
0.00873371
-0.0115246
0.0260191
-0.0169118
0.0204959
-0.0143549
-0.00858608
-0.0116679
-0.00708227
-0.0209167
0.028166
-0.0438172
0.0745107
-0.0658049
0.0741795
-0.070345
0.0192164
-0.0593156
-0.0332666
-0.0471976
-0.0418934
-0.0434387
-0.0180678
-0.0474767
0.00715044
-0.0555548
0.0237166
-0.0634183
0.0258774
-0.0737504
0.0372752
-0.0815491
0.034503
-0.0718262
-0.0200689
-0.0336764
-0.117226
0.0212215
-0.182677
0.0727791
-0.184364
0.102498
-0.126991
0.0908395
0.00288823
0.0389149
0.140045
-0.0447726
0.259933
-0.137288
0.301181
-0.214279
0.285294
0.0992849
0.00161311
0.00125628
-0.00207181
0.00151271
0.00122029
0.00155593
0.00115994
0.00165802
0.00115504
0.0017085
0.00121966
0.00166199
0.00128833
0.00151389
0.00128266
0.00128876
0.00117657
0.00103238
0.000989741
0.000792546
0.000768487
0.000586128
0.000592875
0.000402443
0.000524827
0.000224149
0.000552637
5.02555e-05
0.00059168
-0.000101791
0.000557836
-0.000215855
0.000427159
-0.000292273
0.000232512
-0.000343091
4.15726e-05
-0.000384604
-5.11593e-05
-0.000439882
3.85211e-05
-0.000536022
0.000307036
-0.000686674
0.000632839
-0.00087814
0.000853799
-0.00107667
0.000881233
-0.00124903
0.000741682
-0.00137752
0.000529108
-0.00146161
0.000332867
-0.00151126
0.000198855
-0.00153913
0.000131357
-0.00155551
0.000112958
-0.00156666
0.000123036
-0.00157543
0.000146528
-0.00158267
0.000175622
-0.00158787
0.000206681
-0.00158943
0.000238021
-0.00158532
0.000267039
-0.00157475
0.000290317
-0.00155939
0.000302313
-0.00154293
0.000298363
-0.00152808
0.000275983
-0.00151351
0.000238399
-0.0014936
0.000192369
-0.00146233
0.000144501
-0.00141933
9.81977e-05
-0.00137146
5.11671e-05
-0.00132917
5.85331e-06
-0.00129653
-3.5975e-05
-0.00126914
-5.72385e-05
-0.00123614
-5.85689e-05
-0.00119596
-3.14408e-05
-0.00115586
-1.11377e-05
-0.00113259
3.23052e-06
-0.00112657
-2.31763e-05
-0.00112826
-3.71126e-05
-0.00111395
-5.13641e-05
-0.00108579
-1.5592e-06
-0.00105765
3.8913e-05
-0.00106139
9.2489e-05
-0.00109376
7.73763e-05
-0.00113456
6.35638e-05
-0.00115064
5.01686e-05
-0.00114549
7.85437e-05
-0.00115443
0.000154145
-0.00119681
0.000177889
-0.00127233
0.000268624
-0.00131663
0.000222615
-0.00134345
0.000317111
-0.00134184
0.00012254
-0.00139062
3.24686e-05
-0.00141315
-0.000369598
-0.00138186
-0.000510142
-0.00123272
-0.000612607
-0.00104218
-0.000594903
-0.000941939
-0.000372751
-0.00089465
-0.000540596
-0.00103746
0.000262447
-0.00130051
0.000872676
-0.00207754
0.00276131
-0.0031969
0.00337481
-0.00423514
0.00250699
-0.00403283
-0.00147945
-0.00186163
-0.00802224
0.00042755
-0.00840724
0.000211987
-0.000564971
-0.00354593
0.0119246
-0.00730976
0.0135562
-0.00672055
-0.000987447
-0.00319308
-0.0124067
-0.000622867
-0.0115189
-0.00120252
-0.000357516
-0.00242352
0.00480478
-0.00222601
-2.86256e-07
-0.00626382
0.0129738
-0.0164876
0.0354789
-0.0228441
0.0262216
-0.0201521
-0.0100097
-0.0183064
-0.00713884
-0.0309215
0.0411302
-0.0587419
0.100625
-0.0839938
0.09793
-0.0881731
0.0233814
-0.0746502
-0.0456394
-0.0605658
-0.0553008
-0.0566393
-0.0225096
-0.0620489
0.0116881
-0.0723359
0.033894
-0.0822655
0.0365234
-0.094336
0.0501003
-0.101479
0.0417307
-0.086883
-0.0347523
-0.039527
-0.164265
0.0249996
-0.246567
0.0815239
-0.240032
0.109582
-0.157889
0.0868121
0.0265394
0.0171341
0.210977
-0.0866089
0.363662
-0.199217
0.414237
-0.288706
0.377253
0.121024
0.00159424
0.00122311
-0.00208504
0.00150545
0.00120769
0.00160109
0.00120854
0.001765
0.00125197
0.00186481
0.00132362
0.00184701
0.00136894
0.00171905
0.00133817
0.00152416
0.00122693
0.00132108
0.00106303
0.00114746
0.000880945
0.0010064
0.000733969
0.000870667
0.000676064
0.000711532
0.000703721
0.000524428
0.000744282
0.00033512
0.000716256
0.000175875
0.000597989
5.75221e-05
0.000425631
-2.98476e-05
0.000252179
-0.000100332
0.000144661
-0.000171973
0.000187082
-0.000274077
0.000414383
-0.000433749
0.000738861
-0.000650565
0.000990655
-0.000891977
0.00104783
-0.00111533
0.000915587
-0.00129258
0.000690604
-0.00141842
0.000474891
-0.00150321
0.000322114
-0.00156189
0.000237106
-0.00160652
0.000200507
-0.00164414
0.000191141
-0.00167773
0.000195262
-0.00170809
0.00020725
-0.00173459
0.0002252
-0.00175551
0.000248219
-0.00176867
0.000273274
-0.00177322
0.000295823
-0.00177096
0.000308662
-0.00176572
0.000305774
-0.00176015
0.000283846
-0.00175261
0.000246101
-0.00173717
0.000199452
-0.00170785
0.00014994
-0.00166482
0.00010017
-0.00161563
4.68114e-05
-0.00157144
-5.76769e-06
-0.00153639
-5.41674e-05
-0.0015061
-7.68625e-05
-0.00146928
-7.66921e-05
-0.00142503
-4.43506e-05
-0.0013809
-2.36049e-05
-0.00135493
-9.73646e-06
-0.0013468
-4.39348e-05
-0.00134702
-5.98045e-05
-0.00133025
-7.77169e-05
-0.0013004
-1.95709e-05
-0.00127197
2.48197e-05
-0.0012795
9.04264e-05
-0.00131813
7.93593e-05
-0.00136611
7.56371e-05
-0.00138783
6.89224e-05
-0.00138668
0.000103228
-0.0014013
0.000189065
-0.00144957
0.000210298
-0.00153294
0.000321631
-0.00157786
0.000261133
-0.0016032
0.000368851
-0.0015916
0.000111286
-0.00163216
-4.3809e-06
-0.0016393
-0.000488194
-0.00158877
-0.000640553
-0.00141731
-0.000759344
-0.00120877
-0.000746137
-0.00111852
-0.000454805
-0.00109866
-0.000605792
-0.00131688
0.000486313
-0.00167704
0.00129644
-0.00260073
0.00363133
-0.00385725
0.00429574
-0.00495588
0.00308887
-0.00464721
-0.00201858
-0.00222664
-0.0101045
0.000132933
-0.0102071
-0.00044241
8.65999e-05
-0.00487079
0.0157292
-0.0090627
0.0171505
-0.00828534
-0.00161809
-0.00442679
-0.0156939
-0.00190786
-0.0138471
-0.00296488
0.000539842
-0.0047215
0.00683369
-0.0051512
0.00121446
-0.0106178
0.018557
-0.0227592
0.0466708
-0.0301577
0.0329352
-0.0276347
-0.0111542
-0.0271912
-0.00571312
-0.0435286
0.0578017
-0.0760998
0.13142
-0.104175
0.124148
-0.107643
0.0268855
-0.0915397
-0.0603277
-0.075574
-0.0704069
-0.0715888
-0.0270252
-0.0784858
0.0175867
-0.0911446
0.0463285
-0.10319
0.0492334
-0.116765
0.064389
-0.122624
0.0477163
-0.102677
-0.0545381
-0.0463115
-0.219828
0.0268061
-0.318544
0.0864734
-0.298531
0.110384
-0.174193
0.074559
0.0627505
-0.0143485
0.300283
-0.138312
0.487031
-0.271735
0.547633
-0.375003
0.482788
0.141802
0.00159978
0.00119556
-0.00212806
0.00155326
0.00121685
0.00168852
0.00125317
0.00187585
0.00130255
0.00197326
0.00134399
0.00193626
0.00134371
0.00179641
0.00128291
0.00161895
0.00117515
0.00147045
0.00104893
0.0013747
0.000924891
0.00131176
0.000823067
0.00123728
0.000781849
0.00111578
0.000806962
0.000942203
0.000849288
0.000746881
0.000838865
0.000572644
0.000751718
0.000438525
0.000621496
0.000332845
0.000487493
0.00023949
0.000381872
0.000149994
0.000370658
4.68167e-05
0.00052588
-0.000100936
0.000819589
-0.000310925
0.00110038
-0.000565291
0.00121303
-0.00082182
0.00112124
-0.00104331
0.000906722
-0.00121536
0.000679832
-0.00134381
0.000506657
-0.00144271
0.000398364
-0.00152469
0.000337012
-0.00159735
0.000301928
-0.00166402
0.000280614
-0.00172561
0.00026944
-0.00178154
0.000268263
-0.00182996
0.000277247
-0.00186844
0.000293258
-0.00189598
0.000311016
-0.00191437
0.00032196
-0.00192749
0.000318821
-0.00193784
0.000297216
-0.00194341
0.000259891
-0.00193797
0.000213481
-0.00191563
0.000163087
-0.00187722
0.000110355
-0.001831
5.0551e-05
-0.00178866
-9.9143e-06
-0.00175408
-6.61312e-05
-0.00172291
-9.12928e-05
-0.00168357
-9.07193e-05
-0.00163624
-5.35052e-05
-0.00158897
-3.31627e-05
-0.00156134
-2.01211e-05
-0.00155202
-6.3782e-05
-0.00155174
-8.26333e-05
-0.00153326
-0.000106546
-0.00150259
-4.02492e-05
-0.00147471
8.03122e-06
-0.00148718
8.88652e-05
-0.00153331
8.47338e-05
-0.00158983
9.44971e-05
-0.00161854
9.60474e-05
-0.00162246
0.000135717
-0.00164388
0.000231874
-0.00169825
0.000246739
-0.00178956
0.00037897
-0.00183341
0.000296234
-0.00185545
0.000416694
-0.00183044
8.55345e-05
-0.00185999
-5.55889e-05
-0.00184899
-0.000627583
-0.00177806
-0.000789072
-0.00158697
-0.000918248
-0.00136596
-0.000904302
-0.00129835
-0.000516656
-0.00131804
-0.000639792
-0.00162531
0.000790643
-0.00208554
0.00181299
-0.00314782
0.00462323
-0.00452372
0.00530804
-0.00566696
0.00369186
-0.00527752
-0.00262229
-0.00268449
-0.0123017
-0.000360168
-0.0119318
-0.0013533
0.00111545
-0.00642828
0.0200794
-0.0110324
0.0211014
-0.010137
-0.00231775
-0.00611404
-0.0190685
-0.00382268
-0.01594
-0.00549113
0.00200181
-0.0079849
0.00958868
-0.00932251
0.00334529
-0.016416
0.025667
-0.0305324
0.0596577
-0.0391071
0.0407102
-0.0371449
-0.0116529
-0.0386091
-0.0023955
-0.0589353
0.0778482
-0.0959244
0.166116
-0.126294
0.152441
-0.128725
0.0294382
-0.109951
-0.0774567
-0.0921379
-0.0872386
-0.0881007
-0.0316542
-0.0964858
0.024824
-0.111596
0.0610915
-0.125754
0.064003
-0.140652
0.0799764
-0.144823
0.0520947
-0.119399
-0.079548
-0.0545496
-0.283466
0.0260057
-0.397587
0.0867256
-0.358024
0.105138
-0.195996
0.0549802
0.112997
-0.0539364
0.409253
-0.19782
0.6298
-0.352752
0.702113
-0.472489
0.604604
0.162298
0.00164978
0.00118236
-0.00219461
0.00164277
0.00122188
0.00178872
0.00125262
0.00196764
0.00127615
0.00203629
0.0012758
0.00196531
0.00123868
0.001808
0.00116773
0.00164428
0.00108337
0.00154197
0.00100724
0.00151504
0.000943827
0.00151896
0.000891454
0.00149711
0.000865487
0.00141187
0.000881221
0.00126207
0.000917247
0.00108049
0.000923921
0.000914223
0.000874276
0.000787873
0.000793405
0.000687139
0.000711022
0.00058782
0.000628717
0.000485914
0.00057902
0.000383432
0.000651187
0.00026162
0.000884665
9.13353e-05
0.00117665
-0.000133631
0.00135653
-0.000386623
0.00133689
-0.000629931
0.00116349
-0.000839595
0.000942878
-0.0010119
0.000754031
-0.00115517
0.000620436
-0.00127976
0.000530554
-0.00139301
0.000466276
-0.00149862
0.000416254
-0.00159787
0.000378125
-0.00169032
0.000353148
-0.001774
0.000342761
-0.00184611
0.00034422
-0.00190527
0.000352123
-0.001953
0.000357126
-0.00199305
0.000351075
-0.00202766
0.000328448
-0.00205434
0.000291047
-0.00206648
0.000244749
-0.00205826
0.00019333
-0.00203128
0.000137392
-0.00199442
7.03617e-05
-0.00195967
7.02067e-07
-0.00193026
-6.54897e-05
-0.00190168
-9.51012e-05
-0.00186219
-9.61106e-05
-0.00181369
-5.48773e-05
-0.00176499
-3.62565e-05
-0.00173751
-2.4713e-05
-0.00172865
-8.01846e-05
-0.00172941
-0.000103563
-0.00171034
-0.000136491
-0.00167988
-6.23713e-05
-0.00165335
-1.03717e-05
-0.00167183
8.93627e-05
-0.00172665
9.5407e-05
-0.00179315
0.000122537
-0.00183041
0.000134092
-0.00184077
0.000178264
-0.00187053
0.000284705
-0.00193166
0.000288264
-0.00203166
0.000441637
-0.00207337
0.000327084
-0.00209119
0.000460071
-0.00205007
4.29942e-05
-0.00206671
-0.000122309
-0.00203549
-0.000789092
-0.00194386
-0.000955276
-0.00173678
-0.00108602
-0.00150971
-0.00106455
-0.00147839
-0.000547388
-0.00154925
-0.000633627
-0.00195789
0.00118718
-0.00251707
0.00242344
-0.00370575
0.00573137
-0.00518094
0.00640012
-0.00635832
0.00431387
-0.00593146
-0.00324648
-0.00326206
-0.0145302
-0.00108465
-0.0134884
-0.00253602
0.00255352
-0.0082214
0.0249542
-0.0132476
0.0254401
-0.0123544
-0.00296573
-0.00837162
-0.0223482
-0.00649225
-0.01764
-0.00892362
0.00416866
-0.0124132
0.0133217
-0.0149725
0.00668655
-0.0238689
0.0344763
-0.0400193
0.0745261
-0.0499588
0.0498424
-0.0490298
-0.0110412
-0.0530287
0.00346542
-0.0772764
0.101172
-0.118163
0.204478
-0.150246
0.182309
-0.151324
0.0307538
-0.129754
-0.0971913
-0.110041
-0.105908
-0.105807
-0.0365769
-0.115507
0.0332135
-0.133016
0.0781278
-0.149242
0.0807919
-0.165431
0.0968497
-0.167858
0.0548355
-0.137219
-0.10954
-0.0646233
-0.354541
0.0222761
-0.482765
0.0829401
-0.417396
0.0944389
-0.202797
0.0301688
0.176964
-0.0987848
0.537764
-0.262014
0.791529
-0.439114
0.878451
-0.579576
0.746969
0.18454
0.00172407
0.0011474
-0.0022659
0.00172633
0.00118082
0.00186067
0.00118509
0.00201703
0.00117795
0.00205774
0.00115067
0.00196634
0.00110472
0.00180722
0.00105243
0.00166304
0.00101069
0.00159771
0.000989147
0.00161733
0.000978856
0.00166631
0.000966304
0.00167873
0.000950305
0.00161861
0.000949954
0.00149036
0.000969605
0.00132835
0.00098429
0.00117871
0.000967149
0.00106934
0.000930715
0.000987175
0.000898119
0.000899532
0.00085321
0.000797285
0.000792296
0.000697058
0.000795716
0.000603125
0.000953601
0.000490679
0.00122845
0.000332506
0.00146373
0.000128161
0.00153078
-9.81335e-05
0.00142646
-0.00031943
0.0012367
-0.000521224
0.00104645
-0.000701703
0.000893633
-0.000865218
0.000777715
-0.00101703
0.000686061
-0.00116092
0.000608872
-0.00129875
0.000544172
-0.00143036
0.000493891
-0.00155365