/*--------------------------------*- C++ -*----------------------------------*\
| =========                 |                                                 |
| \\      /  F ield         | OpenFOAM: The Open Source CFD Toolbox           |
|  \\    /   O peration     | Version:  2412                                  |
|   \\  /    A nd           | Website:  www.openfoam.com                      |
|    \\/     M anipulation  |                                                 |
\*---------------------------------------------------------------------------*/
FoamFile
{
    version     2.0;
    format      ascii;
    arch        "LSB;label=32;scalar=64";
    class       volScalarField;
    location    "1.015";
    object      p;
}
// * * * * * * * * * * * * * * * * * * * * * * * * * * * * * * * * * * * * * //

dimensions      [0 2 -2 0 0 0 0];

internalField   nonuniform List<scalar> 
12600
(
-0.0625133
-154.835
-204.89
-201.633
-189.158
-177.562
-167.394
-158.297
-150.054
-142.503
-135.515
-128.995
-122.869
-117.079
-111.579
-106.332
-101.307
-96.4774
-91.8215
-87.3207
-82.959
-78.7225
-74.5991
-70.5782
-66.6504
-62.8075
-59.0419
-55.347
-51.7167
-48.1458
-44.629
-41.1621
-37.7408
-34.3613
-31.02
-27.7137
-24.4394
-21.1941
-17.9753
-14.7803
-11.6069
-8.45272
-5.31577
-2.19388
0.914673
4.01195
7.09939
10.179
13.2519
16.3201
19.3844
22.4469
25.5079
28.5697
31.6323
34.698
37.7665
40.8405
43.919
47.0051
50.0973
53.1987
56.3075
59.4266
62.5541
65.6924
68.8394
71.9968
75.1631
78.3378
81.5212
84.7094
87.9058
91.1015
94.3042
97.4988
100.698
103.882
107.062
110.226
113.362
116.502
119.559
122.666
125.627
128.627
131.613
134.167
137.677
139.218
143.33
144.51
147.976
150.531
150.107
158.949
151.959
162.053
160.57
159.935
172.961
153.611
180.336
165.846
165.389
195.244
145.954
202.363
178.928
161.704
230.516
144.948
216.624
221.059
177.567
222.043
213.958
223.033
209.509
216.374
-24.2096
-123.924
-171.361
-180.973
-177.742
-170.986
-163.226
-155.447
-148.009
-140.987
-134.368
-128.113
-122.185
-116.545
-111.161
-106.005
-101.052
-96.2794
-91.6697
-87.2064
-82.8753
-78.664
-74.5612
-70.5574
-66.6438
-62.8125
-59.0566
-55.3697
-51.746
-48.1805
-44.6683
-41.2049
-37.7866
-34.4094
-31.07
-27.7651
-24.4919
-21.2474
-18.029
-14.8343
-11.661
-8.50675
-5.3696
-2.2474
0.861559
3.95932
7.04731
10.1275
13.2011
16.27
19.335
22.3982
25.46
28.5225
31.5858
34.6523
37.7216
40.7963
43.8757
46.9625
50.0554
53.1576
56.2671
59.387
62.5152
65.6542
68.802
71.96
75.127
78.3024
81.4865
84.6755
87.8725
91.0689
94.2723
97.4677
100.668
103.852
107.033
110.198
113.335
116.475
119.533
122.64
125.602
128.602
131.592
134.142
137.659
139.198
143.309
144.496
147.95
150.529
150.075
158.941
151.958
162.015
160.585
159.886
172.983
153.601
180.279
165.916
165.282
195.298
145.963
202.23
179.084
161.54
230.529
145.041
216.369
221.164
177.589
221.915
213.953
223.045
209.533
216.363
-41.0267
-102.485
-145.276
-162.73
-166.045
-163.404
-158.254
-152.097
-145.659
-139.278
-133.09
-127.139
-121.431
-115.956
-110.698
-105.639
-100.762
-96.0499
-91.4887
-87.0646
-82.7654
-78.58
-74.4986
-70.5123
-66.6132
-62.7939
-59.048
-55.3693
-51.7525
-48.1926
-44.6851
-41.2256
-37.8103
-34.4357
-31.0983
-27.7951
-24.5231
-21.2796
-18.062
-14.8677
-11.6947
-8.54063
-5.4035
-2.2812
0.827941
3.92597
7.01428
10.0949
13.1689
16.2382
19.3037
22.3675
25.4298
28.4929
31.5567
34.6238
37.6937
40.7689
43.8488
46.9362
50.0297
53.1324
56.2425
59.3629
62.4917
65.6312
68.7795
71.938
75.1055
78.2814
81.466
84.6555
87.853
91.0499
94.2538
97.4496
100.65
103.835
107.016
110.182
113.319
116.46
119.519
122.627
125.589
128.589
131.581
134.129
137.649
139.186
143.298
144.488
147.938
150.527
150.056
158.938
151.956
161.994
160.596
159.86
172.997
153.59
180.247
165.957
165.225
195.329
145.961
202.157
179.172
161.46
230.546
145.092
216.237
221.226
177.6
221.845
213.953
223.053
209.545
216.356
-48.9454
-88.7448
-124.173
-144.692
-152.898
-154.189
-151.878
-147.659
-142.51
-136.99
-131.39
-125.85
-120.437
-115.18
-110.086
-105.153
-100.375
-95.7409
-91.2422
-86.8684
-82.6101
-78.4583
-74.4045
-70.4411
-66.5609
-62.7574
-59.0246
-55.3569
-51.7493
-48.1972
-44.696
-41.2419
-37.8312
-34.4603
-31.126
-27.8253
-24.5554
-21.3135
-18.0972
-14.9041
-11.7318
-8.57832
-5.44159
-2.31954
0.789483
3.8875
6.97591
10.0567
13.1309
16.2006
19.2664
22.3305
25.3932
28.4568
31.5211
34.5887
37.6591
40.7349
43.8153
46.9032
49.9972
53.1004
56.2111
59.332
62.4613
65.6013
68.7501
71.9092
75.0772
78.2537
81.4388
84.6288
87.8269
91.0243
94.2287
97.4251
100.626
103.812
106.994
110.159
113.297
116.439
119.498
122.607
125.57
128.57
131.564
134.109
137.635
139.169
143.282
144.476
147.918
150.525
150.028
158.934
151.951
161.965
160.608
159.821
173.018
153.574
180.207
166.009
165.139
195.383
145.952
202.06
179.293
161.318
230.575
145.142
216.034
221.333
177.603
221.739
213.956
223.064
209.563
216.345
-53.9951
-80.4912
-107.411
-127.081
-138.187
-142.939
-143.568
-141.61
-138.103
-133.747
-128.97
-124.017
-119.03
-114.086
-109.226
-104.472
-99.8316
-95.3062
-90.8932
-86.5883
-82.3856
-78.2791
-74.2625
-70.3298
-66.475
-62.6926
-58.9775
-55.3246
-51.7293
-48.1875
-44.6951
-41.2483
-37.8437
-34.4779
-31.1479
-27.8508
-24.5838
-21.3444
-18.13
-14.9385
-11.7675
-8.615
-5.47901
-2.3575
0.751156
3.84897
6.93729
10.0181
13.0924
16.1623
19.2284
22.2929
25.356
28.4199
31.4847
34.5528
37.6236
40.7
43.7809
46.8694
49.964
53.0678
56.179
59.3005
62.4303
65.5709
68.7203
71.88
75.0486
78.2256
81.4113
84.6019
87.8005
90.9985
94.2035
97.4006
100.602
103.788
106.971
110.137
113.276
116.418
119.478
122.587
125.551
128.552
131.548
134.091
137.62
139.153
143.267
144.464
147.9
150.523
150.002
158.933
151.946
161.936
160.621
159.784
173.04
153.554
180.169
166.06
165.055
195.43
145.936
201.965
179.41
161.188
230.609
145.182
215.837
221.439
177.598
221.633
213.963
223.076
209.578
216.332
-57.2823
-75.4376
-95.054
-111.934
-123.769
-130.683
-133.725
-133.96
-132.268
-129.32
-125.601
-121.435
-117.034
-112.53
-108.003
-103.503
-99.0592
-94.6872
-90.3953
-86.1867
-82.0615
-78.0177
-74.0522
-70.1615
-66.3414
-62.5878
-58.8965
-55.2636
-51.6852
-48.1574
-44.6768
-41.24
-37.8437
-34.485
-31.161
-27.8688
-24.606
-21.37
-18.1586
-14.9694
-11.8004
-8.64946
-5.51475
-2.39423
0.713674
3.81093
6.89887
9.97943
13.0537
16.1235
19.1898
22.2544
25.3177
28.382
31.4472
34.5156
37.5869
40.6637
43.7451
46.8341
49.9292
53.0335
56.1453
59.2673
62.3977
65.5388
68.6888
71.849
75.0182
78.1958
81.3821
84.5732
87.7725
90.9711
94.1767
97.3743
100.576
103.763
106.946
110.114
113.253
116.396
119.456
122.566
125.531
128.531
131.53
134.071
137.605
139.135
143.251
144.451
147.882
150.52
149.972
158.929
151.938
161.907
160.634
159.743
173.066
153.529
180.131
166.111
164.961
195.506
145.908
201.866
179.53
161.033
230.657
145.205
215.612
221.571
177.583
221.51
213.974
223.09
209.595
216.317
-58.9034
-71.925
-86.26
-99.9597
-111.041
-118.744
-123.29
-125.245
-125.207
-123.706
-121.177
-117.957
-114.296
-110.366
-106.285
-102.133
-97.9614
-93.8039
-89.682
-85.6092
-81.593
-77.6374
-73.7436
-69.9116
-66.1397
-62.426
-58.7679
-55.1626
-51.6072
-48.0988
-44.6344
-41.2113
-37.8266
-34.4776
-31.1618
-27.8766
-24.6196
-21.3885
-18.1812
-14.9955
-11.8294
-8.68079
-5.54803
-2.4291
0.677527
3.77378
6.86094
9.94094
13.0148
16.0844
19.1505
22.2151
25.2785
28.343
31.4084
34.4771
37.5487
40.6259
43.7078
46.7972
49.8928
52.9976
56.1099
59.2324
62.3634
65.5051
68.6556
71.8164
74.9862
78.1643
81.3512
84.543
87.7428
90.9421
94.1483
97.3466
100.549
103.737
106.921
110.089
113.228
116.373
119.433
122.544
125.51
128.51
131.512
134.049
137.59
139.116
143.233
144.437
147.86
150.516
149.94
158.93
151.928
161.876
160.647
159.7
173.095
153.498
180.093
166.162
164.859
195.578
145.869
201.761
179.649
160.865
230.721
145.208
215.364
221.72
177.557
221.371
213.988
223.106
209.61
216.299
-59.3636
-69.1364
-79.8657
-90.721
-100.372
-107.915
-113.129
-116.193
-117.43
-117.193
-115.815
-113.588
-110.756
-107.504
-103.971
-100.26
-96.4423
-92.5693
-88.6767
-84.7891
-80.9231
-77.0896
-73.2958
-69.5456
-65.8411
-62.1831
-58.5713
-55.0044
-51.4812
-47.9997
-44.558
-41.1539
-37.7852
-34.4497
-31.1453
-27.8698
-24.621
-21.3968
-18.1953
-15.0145
-11.8525
-8.7074
-5.57752
-2.46098
0.64368
3.73833
6.82421
9.90318
12.9762
16.0453
19.111
22.1753
25.2386
28.303
31.3685
34.4374
37.5093
40.5867
43.6689
46.7587
49.8548
52.96
56.0728
59.1959
62.3274
65.4696
68.6207
71.782
74.9524
78.1311
81.3187
84.511
87.7116
90.9114
94.1184
97.3173
100.521
103.709
106.894
110.062
113.203
116.348
119.409
122.521
125.487
128.488
131.492
134.027
137.573
139.095
143.215
144.421
147.846
150.512
149.906
158.933
151.915
161.843
160.66
159.654
173.128
153.461
180.057
166.211
164.748
195.668
145.816
201.65
179.764
160.676
230.806
145.185
215.081
221.892
177.519
221.208
214.007
223.125
209.626
216.278
-59.1099
-66.6819
-74.9254
-83.4906
-91.5855
-98.4666
-103.753
-107.384
-109.471
-110.206
-109.811
-108.508
-106.5
-103.963
-101.037
-97.8347
-94.4397
-90.9162
-87.3121
-83.6623
-79.9924
-76.321
-72.661
-69.0218
-65.4094
-61.828
-58.2799
-54.7664
-51.2877
-47.8437
-44.4334
-41.0558
-37.7094
-34.3928
-31.1044
-27.8423
-24.605
-21.3905
-18.1972
-15.0233
-11.8672
-8.72705
-5.60133
-2.48828
0.613467
3.7057
6.78958
9.86694
12.9387
16.0067
19.0716
22.1353
25.1982
28.2623
31.3277
34.3966
37.4685
40.5462
43.6286
46.7187
49.8151
52.9207
56.034
59.1575
62.2895
65.4322
68.5839
71.7458
74.9168
78.0961
81.2843
84.4773
87.6785
90.879
94.0867
97.2863
100.491
103.68
106.865
110.034
113.175
116.322
119.383
122.497
125.463
128.465
131.471
134.004
137.556
139.074
143.197
144.406
147.817
150.506
149.869
158.938
151.9
161.81
160.673
159.604
173.166
153.415
180.023
166.257
164.624
195.772
145.746
201.533
179.87
160.462
230.916
145.132
214.755
222.089
177.466
221.019
214.029
223.147
209.64
216.254
-58.3843
-64.3671
-70.8422
-77.6509
-84.3326
-90.3589
-95.3557
-99.1499
-101.717
-103.125
-103.495
-102.974
-101.716
-99.8649
-97.5515
-94.8839
-91.9505
-88.8217
-85.5528
-82.1865
-78.7557
-75.2857
-71.7953
-68.2986
-64.8062
-61.3258
-57.8627
-54.4209
-51.0027
-47.6096
-44.2424
-40.9013
-37.5858
-34.2953
-31.029
-27.7858
-24.5644
-21.3635
-18.1817
-15.0176
-11.8697
-8.73658
-5.6168
-2.50876
0.588754
3.67745
6.75837
9.83327
12.903
15.9693
19.0329
22.0956
25.1577
28.2212
31.2861
34.3548
37.4266
40.5042
43.5868
46.677
49.7737
52.8797
55.9932
59.1172
62.2497
65.3929
68.5451
71.7076
74.8792
78.0591
81.2479
84.4416
87.6435
90.8447
94.0531
97.2535
100.459
103.648
106.834
110.005
113.147
116.294
119.356
122.471
125.438
128.441
131.449
133.979
137.538
139.051
143.178
144.388
147.801
150.5
149.827
158.948
151.881
161.776
160.685
159.552
173.209
153.36
179.992
166.299
164.487
195.893
145.657
201.408
179.963
160.22
231.059
145.046
214.375
222.309
177.398
220.798
214.056
223.172
209.653
216.225
-57.3163
-62.107
-67.2839
-72.7609
-78.2556
-83.4136
-87.9343
-91.6229
-94.3848
-96.2042
-97.1233
-97.2227
-96.602
-95.3704
-93.6347
-91.4927
-89.0287
-86.3139
-83.4068
-80.3547
-77.1955
-73.9592
-70.6696
-67.345
-64
-60.6455
-57.2901
-53.9401
-50.6004
-47.2742
-43.9641
-40.6716
-37.3977
-34.1426
-30.9066
-27.6891
-24.4896
-21.3075
-18.1417
-14.9911
-11.8549
-8.73161
-5.62022
-2.5193
0.572181
3.65578
6.7324
9.8037
12.8704
15.9343
18.9958
22.0568
25.1175
28.18
31.2441
34.3122
37.3836
40.461
43.5434
46.6337
49.7305
52.8366
55.9505
59.0749
62.2077
65.3514
68.5042
71.6672
74.8393
78.0199
81.2094
84.4037
87.6064
90.8083
94.0175
97.2187
100.425
103.615
106.802
109.974
113.116
116.264
119.327
122.443
125.412
128.415
131.425
133.953
137.519
139.026
143.158
144.369
147.778
150.491
149.787
158.959
151.857
161.74
160.697
159.495
173.259
153.295
179.965
166.336
164.333
196.034
145.546
201.276
180.039
159.942
231.243
144.923
213.932
222.554
177.311
220.541
214.087
223.2
209.666
216.191
-55.9867
-59.8644
-64.0624
-68.5211
-73.0499
-77.4133
-81.3933
-84.8187
-87.5733
-89.5951
-90.8715
-91.4302
-91.3247
-90.6253
-89.4113
-87.7626
-85.754
-83.4525
-80.9158
-78.1929
-75.3244
-72.3436
-69.2777
-66.1485
-62.9737
-59.7673
-56.5405
-53.302
-50.0587
-46.816
-43.5781
-40.3478
-37.1275
-33.9187
-30.7225
-27.5392
-24.3692
-21.2123
-18.0682
-14.9363
-11.816
-8.70631
-5.60659
-2.51562
0.567375
3.64376
6.71425
9.78037
12.8427
15.9029
18.9613
22.0198
25.0785
28.1393
31.202
34.269
37.3396
40.4165
43.4985
46.5886
49.6853
52.7915
55.9056
59.0302
62.1634
65.3075
68.4607
71.6242
74.797
77.9781
81.1683
84.3633
87.5668
90.7695
93.9796
97.1815
100.388
103.58
106.768
109.94
113.084
116.233
119.297
122.414
125.383
128.388
131.4
133.925
137.499
139
143.137
144.349
147.757
150.481
149.742
158.975
151.83
161.703
160.707
159.434
173.316
153.217
179.943
166.368
164.16
196.197
145.41
201.139
180.096
159.624
231.473
144.758
213.414
222.825
177.202
220.248
214.126
223.234
209.675
216.15
-54.4564
-57.6233
-61.0647
-64.7316
-68.4822
-72.1562
-75.6032
-78.6901
-81.3071
-83.3749
-84.8496
-85.7214
-86.0083
-85.7462
-84.9853
-83.7842
-82.2036
-80.3016
-78.132
-75.7422
-73.1732
-70.4603
-67.6328
-64.7151
-61.7275
-58.6863
-55.605
-52.4946
-49.3639
-46.22
-43.0685
-39.9139
-36.7597
-33.6085
-30.4624
-27.3228
-24.1907
-21.0667
-17.9511
-14.8438
-11.7448
-8.65351
-5.56961
-2.49224
0.579073
3.64545
6.70739
9.76622
12.8223
15.8773
18.9313
21.9861
25.0416
28.0999
31.1605
34.2258
37.2951
40.3709
43.4522
46.5417
49.6381
52.7442
55.8582
58.9829
62.1163
65.2607
68.4144
71.5784
74.7517
77.9335
81.1244
84.3201
87.5244
90.7279
93.9389
97.1417
100.35
103.542
106.731
109.905
113.049
116.2
119.264
122.383
125.354
128.359
131.374
133.896
137.478
138.973
143.115
144.328
147.735
150.468
149.697
158.992
151.797
161.671
160.717
159.37
173.38
153.125
179.929
166.392
163.967
196.385
145.242
200.997
180.133
159.259
231.757
144.546
212.81
223.126
177.068
219.918
214.175
223.274
209.683
216.106
-52.7734
-55.3764
-58.2203
-61.261
-64.3842
-67.4755
-70.433
-73.1603
-75.5661
-77.5721
-79.1213
-80.1821
-80.7465
-80.8248
-80.4413
-79.6326
-78.4423
-76.917
-75.1025
-73.0421
-70.7751
-68.3364
-65.7564
-63.0611
-60.2726
-57.4093
-54.4866
-51.5175
-48.5123
-45.4799
-42.4273
-39.3603
-36.2835
-33.2007
-30.1149
-27.0284
-23.943
-20.86
-17.7802
-14.7043
-11.6327
-8.56525
-5.5021
-2.44273
0.612972
3.66587
6.71617
9.76501
12.8125
15.8602
18.9079
21.9574
25.0085
28.063
31.1205
34.1832
37.2504
40.3246
43.4045
46.4931
49.5887
52.6943
55.8081
58.9326
62.0662
65.2108
68.3648
71.5291
74.703
77.8854
81.077
84.2734
87.4786
90.6829
93.895
97.0988
100.308
103.501
106.691
109.866
113.012
116.164
119.23
122.35
125.322
128.328
131.345
133.866
137.456
138.943
143.092
144.305
147.713
150.454
149.642
159.015
151.763
161.629
160.726
159.297
173.454
153.017
179.924
166.408
163.75
196.6
145.041
200.854
180.149
158.84
232.103
144.283
212.109
223.463
176.905
219.558
214.237
223.32
209.689
216.046
-50.9666
-53.1163
-55.4814
-58.0204
-60.6351
-63.2395
-65.7644
-68.1432
-70.3053
-72.1824
-73.7167
-74.8666
-75.6085
-75.9349
-75.8506
-75.3722
-74.5264
-73.346
-71.8671
-70.1259
-68.1578
-65.9953
-63.6683
-61.2031
-58.6229
-55.9474
-53.1938
-50.3764
-47.5075
-44.597
-41.6536
-38.6842
-35.6947
-32.6897
-29.6734
-26.6486
-23.6181
-20.5838
-17.5472
-14.5095
-11.4716
-8.43389
-5.39688
-2.36043
0.67521
3.71059
6.74562
9.78119
12.8172
15.8549
18.8941
21.9363
24.9811
28.0303
31.0833
34.1423
37.2064
40.278
43.3559
46.4428
49.5372
52.6418
55.7549
58.8791
62.0124
65.157
68.3112
71.4758
74.6502
77.8331
81.0255
84.2226
87.4287
90.6339
93.8471
97.0519
100.262
103.457
106.648
109.825
112.971
116.125
119.192
122.314
125.287
128.294
131.315
133.833
137.432
138.913
143.067
144.281
147.69
150.438
149.592
159.042
151.723
161.592
160.733
159.226
173.53
152.893
179.93
166.417
163.509
196.846
144.8
200.713
180.146
158.362
232.513
143.964
211.305
223.839
176.716
219.174
214.317
223.377
209.693
215.985
-49.0574
-50.8394
-52.8162
-54.9483
-57.1478
-59.3465
-61.4972
-63.555
-65.468
-67.1806
-68.6405
-69.8048
-70.6424
-71.1347
-71.2736
-71.0607
-70.5073
-69.6328
-68.462
-67.023
-65.3446
-63.4557
-61.3835
-59.1535
-56.7887
-54.3095
-51.7341
-49.0779
-46.3545
-43.5753
-40.7501
-37.8871
-34.9934
-32.0745
-29.1355
-26.1802
-23.212
-20.2334
-17.2468
-14.2537
-11.2556
-8.25335
-5.24786
-2.23937
0.771508
3.78504
6.80079
9.81945
12.8406
15.8654
18.8933
21.9257
24.962
28.004
31.0508
34.1045
37.1641
40.232
43.3068
46.3912
49.4836
52.5866
55.6985
58.8218
61.9546
65.0989
68.253
71.4177
74.5925
77.7758
80.9689
84.1667
87.3738
90.5799
93.7943
97.0003
100.212
103.408
106.601
109.779
112.927
116.083
119.151
122.275
125.25
128.258
131.283
133.798
137.407
138.88
143.041
144.255
147.666
150.419
149.532
159.072
151.676
161.552
160.735
159.153
173.618
152.745
179.954
166.414
163.243
197.123
144.516
200.578
180.127
157.819
232.991
143.595
210.396
224.258
176.502
218.776
214.414
223.441
209.696
215.909
-47.0628
-48.5439
-50.2027
-52.0014
-53.8592
-55.7195
-57.5498
-59.3206
-60.9951
-62.5296
-63.8799
-65.0064
-65.8766
-66.4664
-66.7603
-66.7496
-66.4338
-65.8205
-64.9239
-63.7627
-62.3586
-60.7348
-58.9148
-56.9216
-54.7769
-52.5007
-50.1114
-47.625
-45.0561
-42.4171
-39.7189
-36.9708
-34.1809
-31.3558
-28.5015
-25.6226
-22.7234
-19.807
-16.8765
-13.9339
-10.9812
-8.01972
-5.05086
-2.07517
0.906348
3.89369
6.8861
9.88405
12.8868
15.8954
18.909
21.9288
24.9542
27.9866
31.0251
34.0717
37.1252
40.1878
43.2582
46.339
49.4283
52.5289
55.6388
58.7606
61.8923
65.0357
68.1895
71.354
74.5289
77.7124
80.9061
84.1046
87.3127
90.5197
93.7354
96.9426
100.156
103.353
106.548
109.728
112.878
116.035
119.106
122.231
125.21
128.217
131.248
133.759
137.378
138.846
143.011
144.229
147.64
150.399
149.481
159.106
151.626
161.512
160.736
159.077
173.705
152.588
179.987
166.405
162.946
197.436
144.186
200.459
180.097
157.211
233.534
143.186
209.387
224.717
176.271
218.379
214.513
223.515
209.7
215.821
-44.9959
-46.229
-47.6249
-49.1479
-50.7223
-52.2998
-53.857
-55.3758
-56.8303
-58.1873
-59.4108
-60.4665
-61.3238
-61.9577
-62.3486
-62.4823
-62.3506
-61.9516
-61.2903
-60.3767
-59.2249
-57.8518
-56.2759
-54.5166
-52.5932
-50.5242
-48.3271
-46.0182
-43.612
-41.1219
-38.5593
-35.9346
-33.2566
-30.5332
-27.771
-24.9755
-22.1519
-19.3039
-16.4353
-13.5487
-10.6467
-7.73102
-4.80355
-1.8652
1.08263
4.03967
7.00481
9.97831
12.9592
15.9482
18.9443
21.9487
24.9603
27.9807
31.0085
34.0459
37.0912
40.1469
43.2113
46.2869
49.3719
52.4689
55.5759
58.6953
61.8251
64.9671
68.1199
71.2837
74.4584
77.6419
80.836
84.0349
87.2439
90.4519
93.6689
96.8774
100.092
103.292
106.488
109.67
112.822
115.982
119.056
122.181
125.165
128.171
131.21
133.717
137.345
138.809
142.978
144.202
147.611
150.377
149.414
159.14
151.573
161.47
160.737
159.001
173.8
152.412
180.033
166.384
162.637
197.771
143.812
200.349
180.068
156.523
234.144
142.761
208.29
225.204
176.041
217.988
214.639
223.598
209.708
215.719
-42.8669
-43.8943
-45.0715
-46.3645
-47.7025
-49.0424
-50.3675
-51.6671
-52.9236
-54.1121
-55.2037
-56.1699
-56.9841
-57.6222
-58.064
-58.2928
-58.2959
-58.0653
-57.5985
-56.8983
-55.9717
-54.8292
-53.4838
-51.9505
-50.2451
-48.3838
-46.3825
-44.2565
-42.0202
-39.6866
-37.268
-34.7751
-32.2176
-29.6038
-26.9414
-24.2368
-21.4956
-18.7225
-15.9218
-13.0969
-10.2508
-7.3859
-4.50448
-1.60787
1.30212
4.22491
7.15902
10.1045
13.0601
16.0263
19.0019
21.9879
24.983
27.9886
31.0034
34.0291
37.0642
40.111
43.1675
46.2363
49.3155
52.4075
55.5103
58.6261
61.7531
64.8927
68.0438
71.2062
74.3802
77.563
80.7572
83.9562
87.166
90.3747
93.5931
96.8029
100.02
103.221
106.419
109.603
112.758
115.92
118.998
122.124
125.115
128.118
131.168
133.669
137.308
138.771
142.938
144.174
147.577
150.354
149.354
159.172
151.518
161.426
160.738
158.925
173.898
152.22
180.091
166.353
162.309
198.137
143.397
200.273
180.043
155.795
234.783
142.356
207.141
225.715
175.815
217.612
214.762
223.699
209.718
215.603
-40.6843
-41.5401
-42.534
-43.634
-44.7733
-45.9129
-47.0406
-48.1507
-49.2315
-50.2646
-51.2271
-52.0959
-52.8483
-53.4632
-53.9211
-54.205
-54.3004
-54.1956
-53.8835
-53.361
-52.6292
-51.6927
-50.5592
-49.2389
-47.7437
-46.0865
-44.2809
-42.3405
-40.2787
-38.1082
-35.8408
-33.4876
-31.0585
-28.5627
-26.0081
-23.4019
-20.7504
-18.0591
-15.3329
-12.5757
-9.79124
-6.98231
-4.15182
-1.30148
1.56641
4.45098
7.35033
10.2643
13.1912
16.1314
19.0835
22.0482
25.0241
28.0125
31.0116
34.0235
37.0461
40.0818
43.1284
46.1886
49.2602
52.3455
55.4426
58.5535
61.6764
64.8125
67.9608
71.121
74.2934
77.475
80.6686
83.8672
87.0774
90.2865
93.5061
96.7171
99.9355
103.139
106.34
109.526
112.684
115.848
118.931
122.057
125.057
128.055
131.12
133.614
137.263
138.731
142.891
144.147
147.536
150.33
149.291
159.197
151.466
161.374
160.741
158.852
173.995
152.016
180.158
166.32
161.974
198.515
142.96
200.205
180.046
154.998
235.452
142.019
205.968
226.218
175.61
217.258
214.875
223.808
209.757
215.476
-38.4547
-39.1667
-40.0063
-40.9432
-41.9146
-42.8847
-43.8442
-44.7908
-45.7173
-46.6098
-47.4506
-48.2209
-48.902
-49.4758
-49.925
-50.2333
-50.3861
-50.3703
-50.176
-49.7963
-49.2276
-48.4698
-47.5258
-46.4011
-45.1035
-43.6425
-42.0286
-40.2732
-38.388
-36.3845
-34.274
-32.0672
-29.774
-27.4037
-24.9648
-22.4648
-19.9107
-17.3085
-14.6636
-11.9806
-9.2639
-6.51667
-3.74242
-0.943274
1.87796
4.72006
7.5807
10.4595
13.3542
16.2653
19.1908
22.1314
25.0853
28.0538
31.0349
34.0305
37.0384
40.0609
43.0956
46.1452
49.2073
52.2843
55.374
58.4784
61.5957
64.727
67.8713
71.028
74.1978
77.3771
80.5694
83.7669
86.9769
90.1859
93.4062
96.6181
99.8381
103.043
106.246
109.435
112.597
115.763
118.852
121.978
124.99
127.979
131.064
133.549
137.209
138.688
142.833
144.12
147.484
150.306
149.228
159.21
151.422
161.312
160.747
158.781
174.084
151.809
180.229
166.297
161.635
198.906
142.502
200.161
180.081
154.183
236.106
141.773
204.811
226.685
175.439
216.931
214.97
223.929
209.806
215.345
-36.1839
-36.775
-37.4839
-38.2824
-39.1111
-39.9371
-40.7529
-41.5587
-42.3503
-43.1174
-43.846
-44.5211
-45.1274
-45.65
-46.0737
-46.384
-46.567
-46.6098
-46.501
-46.2316
-45.7952
-45.1879
-44.4087
-43.4591
-42.343
-41.0661
-39.6359
-38.0612
-36.3513
-34.5161
-32.5658
-30.5102
-28.3589
-26.121
-23.8051
-21.4188
-18.9696
-16.4639
-13.9076
-11.3057
-8.66324
-5.98387
-3.27164
-0.529075
2.24047
5.03547
7.85309
10.6926
13.5516
16.4301
19.3257
22.2393
25.1684
28.1144
31.0749
34.0519
37.0427
40.0498
43.0707
46.1077
49.1584
52.2251
55.3057
58.402
61.5122
64.637
67.7759
70.9277
74.0936
77.2695
80.4593
83.6546
86.8635
90.0716
93.2921
96.5042
99.7254
102.932
106.137
109.329
112.494
115.662
118.759
121.882
124.91
127.888
130.999
133.473
137.142
138.641
142.759
144.095
147.416
150.284
149.168
159.202
151.393
161.243
160.76
158.722
174.158
151.611
180.294
166.294
161.303
199.283
142.052
200.131
180.189
153.346
236.701
141.671
203.716
227.08
175.317
216.632
215.035
224.058
209.901
215.222
-33.8765
-34.3657
-34.9635
-35.6439
-36.3509
-37.0537
-37.7466
-38.431
-39.1051
-39.7611
-40.3881
-40.9739
-41.5062
-41.9726
-42.3606
-42.6573
-42.8503
-42.9273
-42.8772
-42.6898
-42.3571
-41.8729
-41.2332
-40.4362
-39.4825
-38.3745
-37.1166
-35.7144
-34.1752
-32.5066
-30.7171
-28.8154
-26.8102
-24.7101
-22.5233
-20.2576
-17.9204
-15.5183
-13.0577
-10.544
-7.98265
-5.37764
-2.73361
-0.053451
2.65896
5.40175
8.17159
10.9676
13.7866
16.6287
19.491
22.3742
25.2755
28.1962
31.1335
34.0893
37.0609
40.0504
43.0551
46.0775
49.115
52.1697
55.2394
58.3257
61.4271
64.5438
67.6758
70.8211
73.9817
77.1527
80.3388
83.5306
86.7373
89.9433
93.163
96.3746
99.5963
102.804
106.011
109.204
112.374
115.542
118.649
121.766
124.817
127.778
130.921
133.382
137.057
138.589
142.666
144.072
147.327
150.263
149.11
159.163
151.388
161.153
160.783
158.658
174.202
151.441
180.345
166.327
160.988
199.621
141.646
200.115
180.36
152.515
237.311
141.761
202.708
227.366
175.265
216.36
215.061
224.189
210.05
215.126
-31.5368
-31.9398
-32.4428
-33.0219
-33.6245
-34.2219
-34.8092
-35.389
-35.9609
-36.5191
-37.055
-37.5586
-38.0201
-38.4294
-38.776
-39.049
-39.2375
-39.3305
-39.3174
-39.1882
-38.9341
-38.5476
-38.0228
-37.3556
-36.5438
-35.5871
-34.4869
-33.2463
-31.8697
-30.3626
-28.7317
-26.9839
-25.1269
-23.1681
-21.1152
-18.9757
-16.7568
-14.4651
-12.1071
-9.68852
-7.21505
-4.69108
-2.12168
0.48992
3.13935
5.82444
8.54135
11.2889
14.0636
16.8651
19.6902
22.5394
25.4096
28.3018
31.2131
34.145
37.0948
40.0644
43.0509
46.0565
49.0788
52.1195
55.1765
58.2511
61.342
64.449
67.5724
70.7098
73.8636
77.028
80.2091
83.3959
86.5991
89.8016
93.0194
96.229
99.4504
102.657
105.866
109.06
112.235
115.401
118.521
121.629
124.706
127.645
130.826
133.274
136.952
138.532
142.548
144.051
147.209
150.245
149.057
159.081
151.419
161.039
160.82
158.623
174.204
151.322
180.368
166.409
160.696
199.884
141.328
200.095
180.586
151.698
237.718
142.081
201.79
227.508
175.269
216.112
215.043
224.316
210.279
215.079
-29.1683
-29.4981
-29.9201
-30.412
-30.9247
-31.4315
-31.9279
-32.4174
-32.9005
-33.3729
-33.8276
-34.2567
-34.6521
-35.0056
-35.3086
-35.5519
-35.7262
-35.8219
-35.8293
-35.739
-35.5422
-35.231
-34.7984
-34.2388
-33.5482
-32.7239
-31.7651
-30.6724
-29.4477
-28.0943
-26.6167
-25.0202
-23.3107
-21.4946
-19.5786
-17.5694
-15.4739
-13.2984
-11.0493
-8.73231
-6.35339
-3.9171
-1.42885
1.10786
3.68823
6.30979
8.96825
11.6621
14.3876
17.1439
19.9276
22.7389
25.5742
28.4346
31.3166
34.2218
37.1471
40.0941
43.0601
46.0467
49.0517
52.0764
55.119
58.18
61.2589
64.3544
67.4677
70.5952
73.7409
76.8971
80.0717
83.2519
86.4503
89.6478
92.8625
96.0686
99.2888
102.493
105.704
108.895
112.076
115.238
118.373
121.466
124.576
127.488
130.712
133.146
136.82
138.469
142.399
144.033
147.057
150.227
149.007
158.942
151.501
160.89
160.877
158.544
174.148
151.287
180.323
166.553
160.431
200.027
141.15
200.043
180.84
150.908
237.94
142.662
200.935
227.475
175.372
215.886
214.981
224.431
210.61
215.111
-26.7742
-27.0418
-27.3943
-27.811
-28.2461
-28.6745
-29.0927
-29.504
-29.9099
-30.3071
-30.69
-31.0521
-31.3868
-31.6874
-31.9468
-32.1575
-32.3115
-32.4006
-32.4161
-32.3497
-32.1929
-31.9379
-31.5774
-31.1051
-30.5156
-29.8049
-28.9702
-28.01
-26.9242
-25.7141
-24.382
-22.9313
-21.3663
-19.6919
-17.9136
-16.0371
-14.0686
-12.0137
-9.87886
-7.6693
-5.39109
-3.04883
-0.648108
1.80735
4.31246
6.86445
9.45873
12.0934
14.7644
17.4706
20.2083
22.9772
25.7738
28.5984
31.4479
34.323
37.2208
40.1424
43.0854
46.0504
49.0361
52.0424
55.0689
58.1142
61.1795
64.2615
67.3634
70.4794
73.6155
76.7618
79.9288
83.1005
86.2931
89.4836
92.6944
95.8948
99.1133
102.313
105.525
108.711
111.9
115.052
118.207
121.279
124.426
127.307
130.574
133.001
136.659
138.399
142.213
144.016
146.864
150.207
148.964
158.734
151.651
160.692
160.963
158.504
174.011
151.374
180.212
166.772
160.186
200.001
141.177
199.909
181.085
150.149
237.901
143.548
200.112
227.235
175.608
215.685
214.878
224.524
211.071
215.256
-24.3573
-24.5721
-24.8647
-25.2163
-25.5841
-25.9448
-26.2952
-26.6389
-26.9776
-27.3091
-27.6286
-27.9309
-28.2104
-28.4618
-28.6792
-28.8565
-28.9868
-29.0631
-29.0781
-29.0241
-28.8937
-28.6792
-28.3737
-27.9706
-27.4638
-26.8485
-26.1204
-25.2767
-24.3157
-23.2365
-22.0398
-20.7271
-19.301
-17.7649
-16.1228
-14.3793
-12.5395
-10.6084
-8.5918
-6.49453
-4.32242
-2.08
0.227171
2.5952
5.01894
7.49525
10.0195
12.5892
15.2003
17.8511
20.5379
23.2597
26.0133
28.7979
31.6111
34.4523
37.3196
40.2124
43.1297
46.0704
49.0345
52.0199
55.0282
58.0557
61.1058
64.1724
67.2615
70.364
73.4893
76.6239
79.7821
82.9436
86.1295
89.311
92.5174
95.7097
98.9266
102.118
105.333
108.509
111.709
114.845
118.023
121.069
124.255
127.105
130.41
132.84
136.466
138.324
141.986
143.998
146.627
150.178
148.928
158.451
151.882
160.431
161.08
158.413
173.78
151.631
179.978
167.074
159.949
199.75
141.491
199.625
181.296
149.445
237.522
144.804
199.31
226.765
176.005
215.513
214.742
224.588
211.688
215.55
-21.9203
-22.09
-22.3311
-22.6261
-22.9354
-23.2374
-23.529
-23.814
-24.0943
-24.3683
-24.6321
-24.8811
-25.111
-25.3173
-25.4951
-25.6394
-25.7445
-25.8044
-25.8129
-25.7631
-25.6485
-25.4623
-25.1976
-24.8481
-24.4078
-23.871
-23.2331
-22.4899
-21.6386
-20.677
-19.604
-18.4195
-17.1247
-15.7211
-14.2115
-12.5991
-10.8879
-9.08186
-7.18594
-5.20453
-3.14285
-1.0053
1.20293
3.47775
5.81427
8.20889
10.6572
13.1561
15.7018
18.2916
20.9224
23.592
26.2979
29.038
31.8109
34.6141
37.4474
40.3079
43.1965
46.1096
49.0497
52.0115
54.9996
58.0068
61.0399
64.0889
67.1638
70.2508
73.3642
76.485
79.6337
82.7828
85.9615
89.1318
92.3336
95.5153
98.7308
101.912
105.13
108.293
111.504
114.62
117.823
120.841
124.065
126.889
130.22
132.669
136.239
138.244
141.715
143.971
146.354
150.135
148.909
158.092
152.207
160.09
161.226
158.316
173.452
152.118
179.503
167.466
159.713
199.232
142.206
199.113
181.48
148.857
236.713
146.529
198.557
226.053
176.604
215.38
214.587
224.616
212.484
216.03
-19.4654
-19.5968
-19.7934
-20.0392
-20.2975
-20.5484
-20.789
-21.023
-21.2524
-21.4761
-21.6908
-21.8928
-22.0783
-22.2436
-22.3848
-22.4976
-22.5773
-22.6189
-22.6169
-22.5656
-22.4591
-22.2913
-22.0561
-21.7474
-21.3594
-20.8864
-20.3233
-19.6656
-18.9093
-18.0513
-17.0894
-16.0221
-14.849
-13.5703
-12.1874
-10.7022
-9.11721
-7.43563
-5.66116
-3.79765
-1.84941
0.179324
2.28409
4.46058
6.70453
9.01174
11.3785
13.8007
16.2753
18.7985
21.3681
23.9801
26.6336
29.3243
32.0525
34.8134
37.6088
40.4331
43.2898
46.1718
49.0851
52.0202
54.9858
57.9699
60.9842
64.0132
67.0723
70.1417
73.2419
76.347
79.485
82.6199
85.7906
88.9477
92.1445
95.3133
98.5278
101.695
104.918
108.064
111.288
114.383
117.609
120.602
123.855
126.664
130.002
132.494
135.975
138.16
141.402
143.93
146.063
150.073
148.919
157.664
152.622
159.658
161.392
158.189
173.046
152.891
178.76
167.963
159.5
198.44
143.465
198.288
181.703
148.526
235.384
148.827
197.91
225.111
177.489
215.297
214.433
224.611
213.474
216.723
-16.9952
-17.0938
-17.2519
-17.4547
-17.6686
-17.8749
-18.0711
-18.2607
-18.4458
-18.6255
-18.7971
-18.9575
-19.1034
-19.2318
-19.3394
-19.4228
-19.4778
-19.5003
-19.4857
-19.4289
-19.3249
-19.1683
-18.9536
-18.6753
-18.3279
-17.9059
-17.4041
-16.8178
-16.1426
-15.3746
-14.5109
-13.5488
-12.4868
-11.324
-10.0602
-8.69624
-7.23335
-5.67364
-4.01954
-2.27428
-0.44098
1.47631