/*--------------------------------*- C++ -*----------------------------------*\
| =========                 |                                                 |
| \\      /  F ield         | OpenFOAM: The Open Source CFD Toolbox           |
|  \\    /   O peration     | Version:  2412                                  |
|   \\  /    A nd           | Website:  www.openfoam.com                      |
|    \\/     M anipulation  |                                                 |
\*---------------------------------------------------------------------------*/
FoamFile
{
    version     2.0;
    format      ascii;
    arch        "LSB;label=32;scalar=64";
    class       volVectorField;
    location    "1.155";
    object      U;
}
// * * * * * * * * * * * * * * * * * * * * * * * * * * * * * * * * * * * * * //

dimensions      [0 1 -1 0 0 0 0];

internalField   nonuniform List<vector> 
12600
(
(18.7356 1.24898e-21 2.09486)
(11.6183 1.61017e-20 0.451029)
(7.35061 1.89277e-20 -0.477863)
(5.08937 0 -0.709227)
(3.97664 1.71059e-20 -0.682324)
(3.33599 1.59291e-20 -0.607623)
(2.89475 0 -0.539939)
(2.5635 0 -0.484482)
(2.30383 -4.78737e-20 -0.439012)
(2.09364 0 -0.401259)
(1.91921 2.00767e-20 -0.369376)
(1.77161 1.83817e-20 -0.342034)
(1.64474 -1.6838e-20 -0.318286)
(1.53425 0 -0.297434)
(1.43696 -1.41096e-20 -0.278955)
(1.35049 0 -0.262446)
(1.27301 4.74002e-20 -0.24759)
(1.20309 0 -0.234139)
(1.1396 -1.98327e-20 -0.22189)
(1.08162 -1.81355e-20 -0.21068)
(1.02843 1.65523e-20 -0.200375)
(0.979398 5.42356e-24 -0.190862)
(0.934029 0 -0.182048)
(0.891896 -2.49546e-20 -0.173854)
(0.852639 0 -0.166213)
(0.81595 0 -0.159066)
(0.781566 -1.84842e-20 -0.152364)
(0.74926 0 -0.146064)
(0.718833 4.06052e-24 -0.140128)
(0.690113 1.33404e-20 -0.134524)
(0.662949 1.18706e-20 -0.129222)
(0.637205 1.05093e-20 -0.124196)
(0.612763 -9.24876e-21 -0.119424)
(0.589517 -1.61641e-20 -0.114885)
(0.567372 -1.40053e-20 -0.110562)
(0.546244 1.19984e-20 -0.106436)
(0.526056 0 -0.102495)
(0.506738 -8.46096e-21 -0.0987238)
(0.488229 0 -0.0951108)
(0.47047 5.43989e-21 -0.0916449)
(0.453411 0 -0.088316)
(0.437002 1.74963e-23 -0.0851147)
(0.421202 0 -0.0820327)
(0.405969 1.5928e-23 -0.0790618)
(0.391267 -4.86724e-22 -0.0761953)
(0.377061 2.20756e-21 -0.0734259)
(0.36332 -3.80638e-21 -0.070748)
(0.350012 0 -0.0681551)
(0.337115 0 -0.0656429)
(0.324595 -7.75202e-21 -0.0632049)
(0.312438 -1.76554e-20 -0.0608382)
(0.300611 -1.95932e-20 -0.0585362)
(0.289104 1.94212e-23 -0.0562974)
(0.277883 -2.28684e-20 -0.0541148)
(0.266947 0 -0.0519883)
(0.256258 2.54887e-20 -0.0499103)
(0.245825 2.656e-20 -0.0478827)
(0.2356 2.74759e-20 -0.0458962)
(0.225607 0 -0.0439552)
(0.215786 0 -0.0420483)
(0.206179 0 -0.0401833)
(0.196709 -5.99995e-20 -0.0383456)
(0.187439 0 -0.0365472)
(0.178272 0 -0.0347691)
(0.1693 1.23299e-19 -0.0330293)
(0.160392 0 -0.0313025)
(0.151683 0 -0.0296145)
(0.142999 0 -0.0279318)
(0.134525 -1.23407e-19 -0.0262901)
(0.126035 1.22793e-19 -0.0246456)
(0.11778 1.21996e-19 -0.0230468)
(0.109462 2.33454e-23 -0.0214361)
(0.101416 -1.19785e-19 -0.0198782)
(0.0932605 0 -0.0182993)
(0.0854259 1.16886e-19 -0.0167823)
(0.0774425 0 -0.015237)
(0.0698242 0 -0.0137619)
(0.0620562 0 -0.0122582)
(0.0546518 2.85495e-23 -0.0108242)
(0.0471862 2.1447e-19 -0.00937877)
(0.0399968 2.10031e-19 -0.00798604)
(0.0328977 -2.05256e-19 -0.00661097)
(0.0261303 -2.00502e-19 -0.00529912)
(0.01896 0 -0.00391037)
(0.0139698 0 -0.00293842)
(0.00436604 3.69746e-19 -0.0010857)
(0.0048968 -7.21559e-19 -0.00116766)
(-0.0105039 6.94657e-19 0.00179319)
(-0.00396511 3.40047e-19 0.000531625)
(-0.0196198 0 0.00358107)
(-0.0204967 -6.34957e-19 0.00366588)
(-0.0122885 3.05104e-19 0.00229546)
(-0.0629272 -2.89865e-19 0.011719)
(0.0251744 5.85408e-19 -0.00481511)
(-0.0970701 0 0.018477)
(0.0066203 0 -0.00182464)
(-0.0607552 0 0.0119836)
(-0.0587881 0 0.0106045)
(-0.0128987 0 0.00291434)
(-0.150623 0 0.0283216)
(0.0603067 -4.49653e-19 -0.0114206)
(-0.202646 -7.34058e-19 0.0387492)
(0.0392083 -8.53763e-19 -0.00818963)
(-0.126543 0 0.0248456)
(-0.0482746 0 0.00839247)
(-0.0425768 0 0.00889244)
(-0.187606 -6.55684e-19 0.0351734)
(0.0414952 -1.28378e-18 -0.00784139)
(-0.224372 5.55112e-19 0.0431143)
(-0.0532739 0 0.00919688)
(-0.0667115 -1.06563e-18 0.0130377)
(-0.0703852 0 0.0137195)
(-0.173844 -9.40785e-19 0.0330625)
(-0.0201458 9.84973e-19 0.00333904)
(-0.0800045 -8.49848e-19 0.0160898)
(-0.205192 -8.44649e-19 0.0387827)
(-0.0222439 8.34251e-19 0.00362579)
(-0.0374317 4.30869e-23 0.00762682)
(-0.127504 7.10078e-19 0.0243274)
(-0.0660686 0 0.0122145)
(29.1446 -1.26085e-21 4.02664)
(25.1021 0 1.85831)
(20.2408 -1.91569e-20 -0.213852)
(16.0753 0 -1.21231)
(13.1166 -1.73332e-20 -1.50777)
(11.0745 -3.0433e-20 -1.51875)
(9.60257 -1.40862e-20 -1.44112)
(8.49079 0 -1.34353)
(7.6181 3.55871e-22 -1.24816)
(6.91169 -2.18983e-20 -1.1611)
(6.32593 2.01051e-20 -1.08304)
(5.8308 1.84563e-20 -1.01323)
(5.40569 -1.69404e-20 -0.950683)
(5.03595 1.55457e-20 -0.894414)
(4.71082 2.85789e-20 -0.843564)
(4.42223 0 -0.797399)
(4.16398 -6.463e-23 -0.755301)
(3.93126 2.19505e-20 -0.716748)
(3.72021 2.01212e-20 -0.681301)
(3.52776 0 -0.648589)
(3.35141 0 -0.618296)
(3.18908 1.52971e-20 -0.590155)
(3.03906 0 -0.563934)
(2.89991 1.26502e-20 -0.539434)
(2.77041 -2.29362e-20 -0.516485)
(2.64953 0 -0.494936)
(2.53638 1.87348e-20 -0.474657)
(2.43019 0 -0.455532)
(2.33029 -1.512e-20 -0.437461)
(2.2361 -2.70264e-20 -0.420353)
(2.1471 -2.40445e-20 -0.40413)
(2.06285 -1.06373e-20 -0.388719)
(1.98294 9.35884e-21 -0.374057)
(1.90703 3.27212e-20 -0.360086)
(1.83478 2.8345e-20 -0.346756)
(1.76592 0 -0.334019)
(1.7002 0 -0.321833)
(1.63737 -1.72679e-23 -0.310159)
(1.57722 0 -0.298962)
(1.51958 -5.4918e-21 -0.288209)
(1.46425 0 -0.277872)
(1.41109 -5.8045e-21 -0.267923)
(1.35995 0 -0.258337)
(1.31069 -1.43745e-21 -0.24909)
(1.2632 0 -0.240163)
(1.21735 -2.22288e-21 -0.231533)
(1.17304 0 -0.223184)
(1.13016 0 -0.215096)
(1.08865 6.56462e-21 -0.207256)
(1.04839 0 -0.199646)
(1.00933 0 -0.192255)
(0.971363 0 -0.185065)
(0.934457 2.13809e-20 -0.17807)
(0.898503 4.58225e-20 -0.171249)
(0.86349 0 -0.164604)
(0.829299 0 -0.158108)
(0.795949 -2.65356e-20 -0.151769)
(0.763298 -2.74746e-20 -0.145557)
(0.731406 0 -0.139489)
(0.700098 0 -0.133525)
(0.669483 0 -0.127694)
(0.639339 0 -0.121946)
(0.609844 -6.04504e-20 -0.116323)
(0.580705 6.09479e-20 -0.110761)
(0.552192 -1.22597e-19 -0.105322)
(0.523918 0 -0.0999196)
(0.49627 0 -0.0946429)
(0.468739 0 -0.0893778)
(0.441865 4.72242e-23 -0.0842467)
(0.414975 -1.21619e-19 -0.0791002)
(0.38881 -1.2072e-19 -0.0741033)
(0.362485 2.39132e-19 -0.0690611)
(0.336993 3.5768e-23 -0.0641927)
(0.311195 -1.16785e-19 -0.0592479)
(0.286372 -1.15223e-19 -0.0545081)
(0.261121 0 -0.0496648)
(0.236977 0 -0.0450566)
(0.212392 0 -0.0403384)
(0.188916 2.14844e-19 -0.03586)
(0.165257 0 -0.0313175)
(0.142439 0 -0.0269661)
(0.119923 2.00888e-19 -0.0226459)
(0.0983198 1.96025e-19 -0.0185206)
(0.0757748 0 -0.0142113)
(0.0592045 0 -0.0110268)
(0.0298869 0 -0.00545474)
(0.0293623 7.02329e-19 -0.00531854)
(-0.0171054 -4.67002e-23 0.00358175)
(0.00111923 3.30231e-19 -8.93444e-05)
(-0.0478598 -3.15308e-19 0.00968972)
(-0.0486251 6.1532e-19 0.00904111)
(-0.0317492 2.95377e-19 0.007002)
(-0.172293 5.60572e-19 0.0324014)
(0.0749433 0 -0.0139967)
(-0.282608 0 0.0553013)
(0.0324561 0 -0.00801061)
(-0.186039 0 0.0379174)
(-0.1579 4.78466e-19 0.0285118)
(-0.0463238 0 0.0112783)
(-0.430019 0 0.0813095)
(0.167144 -4.31298e-19 -0.0317585)
(-0.603174 3.51584e-19 0.117234)
(0.129783 1.63404e-18 -0.0277702)
(-0.39416 -6.38591e-19 0.0786004)
(-0.120908 0 0.0204777)
(-0.143942 0 0.0312145)
(-0.532388 0 0.100494)
(0.109883 6.11447e-19 -0.0208972)
(-0.677625 -5.28302e-19 0.132497)
(-0.131956 0 0.0215514)
(-0.215696 2.02496e-18 0.0421669)
(-0.21605 9.74823e-19 0.0430976)
(-0.501162 1.78462e-18 0.0960469)
(-0.0524191 0 0.00784082)
(-0.260443 0 0.0537757)
(-0.58194 -7.99102e-19 0.110923)
(-0.0550437 0 0.0074542)
(-0.131287 -7.24271e-19 0.0270481)
(-0.373419 -6.70619e-19 0.0724064)
(-0.177114 0 0.0328055)
(31.8882 0 3.89725)
(31.074 0 2.81877)
(28.5446 -1.29798e-20 1.02316)
(25.2024 0 -0.383491)
(21.9516 0 -1.22721)
(19.1799 1.5128e-20 -1.65179)
(16.9229 1.33398e-20 -1.81995)
(15.0989 0 -1.85147)
(13.6122 4.20634e-22 -1.81773)
(12.3826 2.07457e-20 -1.75521)
(11.3498 -3.78856e-20 -1.68142)
(10.4695 -1.74872e-20 -1.6047)
(9.7094 1.14559e-22 -1.52905)
(9.04577 -1.47307e-20 -1.4563)
(8.46067 -1.3514e-20 -1.38726)
(7.94039 1.23425e-20 -1.32217)
(7.47426 -2.27137e-20 -1.26102)
(7.05386 -2.08012e-20 -1.20365)
(6.67247 0 -1.14985)
(6.32462 0 -1.09937)
(6.00586 1.5859e-20 -1.05196)
(5.71249 1.44639e-20 -1.00738)
(5.44145 0 -0.965411)
(5.19013 0 -0.925841)
(4.95636 2.17335e-20 -0.88848)
(4.73824 0 -0.853153)
(4.53417 -3.54978e-20 -0.819701)
(4.34277 1.5974e-20 -0.787981)
(4.16281 0 -0.75786)
(3.99323 1.28055e-20 -0.72922)
(3.83311 1.13929e-20 -0.701953)
(3.68163 0 -0.67596)
(3.53806 -8.87867e-21 -0.651151)
(3.40175 -1.55053e-20 -0.627443)
(3.27212 1.20551e-23 -0.604762)
(3.14865 0 -0.583039)
(3.03087 0 -0.562211)
(2.91836 8.11109e-21 -0.54222)
(2.81075 0 -0.523011)
(2.70767 0 -0.504535)
(2.60881 0 -0.486748)
(2.51389 0 -0.469604)
(2.42264 0 -0.453067)
(2.33481 0 -0.437098)
(2.25018 0 -0.421665)
(2.16854 2.06094e-21 -0.406733)
(2.0897 -3.57156e-21 -0.392277)
(2.01347 0 -0.378261)
(1.93971 -6.21074e-21 -0.364669)
(1.86823 0 -0.351465)
(1.79893 0 -0.338637)
(1.73162 1.85197e-20 -0.326151)
(1.66623 0 -0.314001)
(1.60257 -2.16495e-20 -0.302148)
(1.54062 2.29218e-20 -0.290596)
(1.48017 0 -0.279302)
(1.42124 2.50819e-20 -0.26828)
(1.36359 0 -0.257476)
(1.30731 0 -0.246921)
(1.2521 0 -0.236545)
(1.19814 5.55963e-20 -0.226401)
(1.14506 5.64201e-20 -0.216399)
(1.09313 2.8358e-23 -0.206617)
(1.04187 -1.15078e-19 -0.196937)
(0.991727 2.48665e-23 -0.187474)
(0.942044 0 -0.178072)
(0.893466 0 -0.168892)
(0.845136 -1.15788e-19 -0.159729)
(0.797952 3.80051e-23 -0.150802)
(0.750786 0 -0.141843)
(0.704871 0 -0.13315)
(0.658725 -1.12736e-19 -0.124371)
(0.614006 2.875e-23 -0.1159)
(0.568801 2.67974e-23 -0.107288)
(0.525255 0 -0.0990406)
(0.481011 0 -0.0906002)
(0.438646 -2.10126e-19 -0.0825805)
(0.395551 2.06231e-19 -0.0743486)
(0.354341 0 -0.0665552)
(0.312823 0 -0.0586168)
(0.272736 0 -0.0510398)
(0.233192 0 -0.0434895)
(0.195076 0 -0.0362561)
(0.155723 0 -0.0288228)
(0.125647 0 -0.0229918)
(0.0756651 0 -0.0137194)
(0.0717258 -6.60298e-19 -0.0127222)
(-0.00655946 -3.17435e-19 0.00201868)
(0.0217664 -3.10375e-19 -0.00372474)
(-0.0629867 2.96288e-19 0.0135738)
(-0.0620749 -5.7801e-19 0.0109571)
(-0.0440951 -2.77446e-19 0.0115951)
(-0.2646 -2.63185e-19 0.0478744)
(0.125623 0 -0.0220931)
(-0.45875 0 0.0904647)
(0.0710384 0 -0.0184036)
(-0.314716 0 0.0667222)
(-0.238135 -4.48881e-19 0.0401765)
(-0.0871141 0 0.0241362)
(-0.688526 0 0.126913)
(0.260338 4.04397e-19 -0.0472582)
(-0.999652 0 0.194802)
(0.231375 -7.65741e-19 -0.0522393)
(-0.677612 5.98433e-19 0.138164)
(-0.168983 0 0.0240231)
(-0.26259 0 0.0612318)
(-0.847882 0 0.155997)
(0.161857 5.72737e-19 -0.0288595)
(-1.13474 0 0.224133)
(-0.185024 -5.25407e-19 0.023482)
(-0.383247 5.54844e-23 0.0761924)
(-0.364158 -9.12332e-19 0.0747348)
(-0.811375 -1.66966e-18 0.15314)
(-0.0797017 0 0.00899928)
(-0.460289 7.53226e-19 0.0998109)
(-0.925077 7.47464e-19 0.172812)
(-0.0798561 7.37772e-19 0.00589578)
(-0.242346 0 0.0527432)
(-0.609069 6.27052e-19 0.117914)
(-0.265777 0 0.0464579)
(32.4101 0 2.95511)
(32.976 0 2.76849)
(32.4225 1.22702e-20 1.72342)
(30.7793 0 0.521584)
(28.526 -1.2312e-20 -0.484044)
(26.1097 2.50427e-20 -1.2073)
(23.7902 0 -1.67055)
(21.6837 -2.18588e-20 -1.9348)
(19.8237 2.09579e-20 -2.06404)
(18.2008 1.8953e-20 -2.10835)
(16.7873 1.78127e-20 -2.10155)
(15.5522 -1.61903e-20 -2.06493)
(14.4669 1.50721e-20 -2.01144)
(13.5071 -2.74781e-20 -1.94891)
(12.6527 0 -1.88208)
(11.8876 -2.32835e-20 -1.81381)
(11.1982 0 -1.74584)
(10.5739 0 -1.67923)
(10.0056 0 -1.6146)
(9.4859 1.63796e-20 -1.55227)
(9.00874 -3.42183e-23 -1.49242)
(8.56891 -2.60333e-23 -1.4351)
(8.16207 1.24378e-20 -1.38028)
(7.7845 0 -1.32791)
(7.43304 0 -1.27791)
(7.10498 0 -1.23016)
(6.79796 3.35582e-20 -1.18456)
(6.50993 -6.02571e-24 -1.14099)
(6.23912 0 -1.09935)
(5.98395 0 -1.05952)
(5.74304 0 -1.0214)
(5.51516 0 -0.984901)
(5.29924 1.67943e-20 -0.949917)
(5.0943 0 -0.916362)
(4.89947 -1.27109e-20 -0.884154)
(4.71397 0 -0.853212)
(4.5371 0 -0.823465)
(4.36823 -7.69097e-21 -0.794843)
(4.20676 0 -0.767281)
(4.05219 0 -0.740717)
(3.90403 3.74361e-21 -0.715097)
(3.76183 -5.2642e-21 -0.690364)
(3.62521 0 -0.666471)
(3.49379 -1.35135e-21 -0.643367)
(3.36723 0 -0.621012)
(3.24521 -3.8746e-21 -0.599359)
(3.12745 1.88024e-23 -0.578375)
(3.01366 0 -0.558014)
(2.90362 0 -0.538251)
(2.79705 6.9006e-21 -0.519039)
(2.69378 1.57272e-20 -0.500364)
(2.59355 -3.49455e-20 -0.482175)
(2.49624 0 -0.464467)
(2.40158 -2.03887e-20 -0.447185)
(2.3095 -2.16373e-20 -0.430337)
(2.21971 -2.26888e-20 -0.413857)
(2.13224 -2.36295e-20 -0.397771)
(2.04672 0 -0.381999)
(1.96328 0 -0.366588)
(1.88148 -5.14422e-20 -0.351436)
(1.80158 -1.04853e-19 -0.336621)
(1.72302 -5.32137e-20 -0.32201)
(1.6462 3.04311e-23 -0.307721)
(1.57044 5.42418e-20 -0.293579)
(1.49633 5.45259e-20 -0.279754)
(1.42297 0 -0.266017)
(1.35125 0 -0.252602)
(1.27995 1.09116e-19 -0.239212)
(1.21034 2.17321e-19 -0.226166)
(1.14081 0 -0.213075)
(1.0731 1.07148e-19 -0.200367)
(1.00512 1.06112e-19 -0.187537)
(0.939193 1.0498e-19 -0.175153)
(0.872619 2.07221e-19 -0.162563)
(0.808427 0 -0.1505)
(0.743269 0 -0.138155)
(0.680801 1.97733e-19 -0.126422)
(0.617307 -3.88027e-19 -0.11437)
(0.556516 -1.90221e-19 -0.102967)
(0.495276 0 -0.0913279)
(0.436097 0 -0.0802353)
(0.377711 0 -0.0691608)
(0.321221 0 -0.0585098)
(0.263427 0 -0.0477242)
(0.217713 0 -0.0388255)
(0.145966 -3.18201e-19 -0.0258126)
(0.135926 3.65301e-23 -0.0233669)
(0.0251063 2.98054e-19 -0.00280713)
(0.061452 0 -0.0102409)
(-0.0614842 2.78116e-19 0.0150904)
(-0.0575746 2.71266e-19 0.00972668)
(-0.0463852 0 0.0156722)
(-0.33623 -2.46848e-19 0.0589215)
(0.178229 -4.98256e-19 -0.0293463)
(-0.620677 0 0.123496)
(0.122611 0 -0.0320127)
(-0.44387 0 0.0977731)
(-0.296431 -4.20661e-19 0.0465887)
(-0.134523 0 0.0408548)
(-0.920934 0 0.166483)
(0.337972 3.79062e-19 -0.0584956)
(-1.38497 -3.08632e-19 0.270668)
(0.341156 0 -0.0800316)
(-0.973363 0 0.202369)
(-0.189924 0 0.0204187)
(-0.398139 0 0.0978972)
(-1.12757 0 0.203443)
(0.194035 7.82472e-23 -0.0317539)
(-1.58643 0 0.316157)
(-0.21323 4.9166e-19 0.0176411)
(-0.569424 -8.86801e-19 0.114926)
(-0.509448 0 0.107252)
(-1.10168 1.7218e-22 0.205968)
(-0.10397 0 0.00848702)
(-0.67531 7.13712e-23 0.151942)
(-1.22676 0 0.225874)
(-0.0995895 -6.89792e-19 0.00127904)
(-0.366537 0 0.082775)
(-0.828268 5.86053e-19 0.160341)
(-0.327603 0 0.0539103)
(32.5126 0 2.10271)
(33.2704 0 2.22794)
(33.617 0 1.75239)
(33.2526 0 0.957855)
(32.2297 1.16216e-20 0.115579)
(30.7557 -9.01134e-22 -0.633954)
(29.036 0 -1.23533)
(27.2295 2.06317e-20 -1.67938)
(25.4458 0 -1.98328)
(23.7512 -3.52781e-20 -2.17531)
(22.1778 0 -2.28405)
(20.736 1.52848e-20 -2.33351)
(19.423 0 -2.34202)
(18.2303 2.59436e-20 -2.32281)
(17.1466 -1.18179e-20 -2.2852)
(16.1604 2.18384e-20 -2.23564)
(15.2607 -1.99938e-20 -2.17857)
(14.4376 -1.83539e-20 -2.11706)
(13.6824 0 -2.05321)
(12.9873 -1.54669e-20 -1.98847)
(12.3457 -1.41322e-20 -1.92385)
(11.7518 -2.57517e-20 -1.86003)
(11.2004 -1.17447e-20 -1.79745)
(10.6872 0 -1.73642)
(10.2083 0 -1.67712)
(9.76042 0 -1.61966)
(9.34058 -1.58383e-20 -1.56409)
(8.9462 -1.42584e-20 -1.51043)
(8.57498 0 -1.45865)
(8.2249 0 -1.40871)
(7.89416 1.01736e-20 -1.36058)
(7.58116 0 -1.31418)
(7.28446 1.34603e-24 -1.26947)
(7.00277 -1.38631e-20 -1.22636)
(6.73494 1.20149e-20 -1.18479)
(6.47991 0 -1.1447)
(6.23675 0 -1.10601)
(6.00459 7.2589e-21 -1.06867)
(5.78266 0 -1.0326)
(5.57024 0 -0.997744)
(5.36668 -3.5327e-21 -0.964046)
(5.17137 4.96732e-21 -0.931445)
(4.98378 0 -0.89989)
(4.80339 1.27498e-21 -0.869322)
(4.62974 0 -0.839698)
(4.46239 1.81829e-21 -0.810963)
(4.30096 3.16492e-21 -0.783078)
(4.14504 0 -0.75599)
(3.99432 5.48542e-21 -0.729669)
(3.84844 -6.50765e-21 -0.704059)
(3.70715 -2.9631e-20 -0.679142)
(3.57009 1.64612e-20 -0.654855)
(3.4371 -1.78944e-20 -0.631195)
(3.30779 2.5326e-23 -0.60809)
(3.18208 0 -0.585553)
(3.05958 2.13851e-20 -0.563498)
(2.94029 2.22695e-20 -0.541962)
(2.82374 -2.30125e-20 -0.520837)
(2.71008 2.36666e-20 -0.50019)
(2.59873 4.84659e-20 -0.479884)
(2.49001 4.93713e-20 -0.460025)
(2.38318 -5.00615e-20 -0.440436)
(2.27877 5.06531e-20 -0.421273)
(2.17586 0 -0.402307)
(2.07523 0 -0.383761)
(1.97568 5.14141e-20 -0.365333)
(1.87836 0 -0.347334)
(1.78169 0 -0.329367)
(1.68731 -1.02242e-19 -0.311858)
(1.59311 0 -0.294288)
(1.50136 -1.0081e-19 -0.277229)
(1.40931 -1.99609e-19 -0.260005)
(1.32 0 -0.243374)
(1.22988 -9.74266e-20 -0.226465)
(1.14291 0 -0.210261)
(1.05472 0 -0.19367)
(0.970062 -1.85786e-19 -0.177904)
(0.884073 1.82331e-19 -0.16169)
(0.801651 3.90735e-23 -0.146363)
(0.71862 0 -0.130679)
(0.638318 0 -0.115761)
(0.559065 0 -0.100828)
(0.482132 -1.62747e-19 -0.0864245)
(0.404045 1.58352e-19 -0.0720297)
(0.340352 0 -0.059587)
(0.245536 5.97351e-19 -0.0428207)
(0.226419 2.91024e-19 -0.0381896)
(0.082308 -5.59354e-19 -0.0119003)
(0.124073 -2.73365e-19 -0.0205897)
(-0.0393399 -5.21778e-19 0.0134402)
(-0.0315524 0 0.00436447)
(-0.0350849 0 0.0187046)
(-0.383561 2.3146e-19 0.0641101)
(0.234585 4.67123e-19 -0.0356741)
(-0.763148 -4.08913e-19 0.152999)
(0.187124 0 -0.0489798)
(-0.569696 0 0.130383)
(-0.33028 3.94134e-19 0.046485)
(-0.186978 3.60938e-19 0.0615962)
(-1.12247 0 0.197728)
(0.399345 -3.55e-19 -0.0641435)
(-1.75141 2.89e-19 0.34262)
(0.4552 0 -0.110532)
(-1.27654 0 0.270309)
(-0.182692 0 0.00833896)
(-0.549001 0 0.141624)
(-1.36579 0 0.239757)
(0.204256 -5.01668e-19 -0.0278704)
(-2.02234 0 0.406116)
(-0.219856 0 0.00333221)
(-0.772548 0 0.158695)
(-0.646329 7.98201e-19 0.139295)
(-1.37055 7.29988e-19 0.252546)
(-0.127105 0 0.00645063)
(-0.899637 -6.58604e-19 0.20957)
(-1.48066 0 0.266291)
(-0.117709 -6.44665e-19 -0.00609652)
(-0.497535 0 0.116705)
(-1.02504 -5.47688e-19 0.197289)
(-0.358526 0 0.0530123)
(32.5847 -4.9845e-21 1.48867)
(33.168 -6.187e-21 1.62812)
(33.6946 7.34647e-21 1.43686)
(33.92 8.27878e-21 0.975587)
(33.7274 0 0.383342)
(33.1286 -9.92334e-21 -0.232866)
(32.1971 0 -0.807222)
(31.0237 1.74359e-20 -1.3027)
(29.6971 1.66719e-20 -1.70389)
(28.2938 3.21578e-20 -2.01121)
(26.873 -1.47969e-20 -2.23438)
(25.4771 1.38087e-20 -2.38691)
(24.1332 0 -2.48271)
(22.8568 0 -2.53443)
(21.6553 1.11417e-20 -2.55269)
(20.5304 -1.14548e-22 -2.54603)
(19.4805 1.76051e-22 -2.52109)
(18.5021 1.35892e-22 -2.48295)
(17.5906 0 -2.43545)
(16.7413 0 -2.38148)
(15.9491 0 -2.32318)
(15.2095 2.41971e-20 -2.26217)
(14.5179 1.10092e-20 -2.19965)
(13.8703 0 -2.1365)
(13.2629 0 -2.07339)
(12.6923 1.64819e-20 -2.01079)
(12.1555 0 -1.94907)
(11.6496 0 -1.88847)
(11.1722 0 -1.82917)
(10.721 0 -1.77129)
(10.2939 -6.42178e-24 -1.7149)
(9.889 0 -1.66005)
(9.50468 -1.63661e-24 -1.60675)
(9.13938 1.30681e-20 -1.555)
(8.79173 2.56939e-24 -1.50478)
(8.46044 0 -1.45607)
(8.14436 0 -1.40883)
(7.84243 0 -1.36302)
(7.55369 0 -1.3186)
(7.27724 0 -1.27552)
(7.01228 0 -1.23373)
(6.75803 0 -1.19319)
(6.51382 -2.9021e-21 -1.15383)
(6.279 -1.23747e-21 -1.11562)
(6.05297 0 -1.07851)
(5.83517 1.67856e-21 -1.04243)
(5.62511 0 -1.00737)
(5.42228 0 -0.973248)
(5.22628 -1.03179e-20 -0.940047)
(5.03662 0 -0.9077)
(4.85299 1.39386e-20 -0.876191)
(4.67493 0 -0.845446)
(4.50222 3.36732e-20 -0.815466)
(4.33437 2.45421e-23 -0.786163)
(4.17127 0 -0.75756)
(4.01239 0 -0.729549)
(3.85775 0 -0.702181)
(3.70675 4.3299e-20 -0.67532)
(3.55955 -4.4527e-20 -0.649055)
(3.41543 -4.55386e-20 -0.623212)
(3.27475 -4.639e-20 -0.597929)
(3.13662 9.41676e-20 -0.57298)
(3.00166 4.75938e-20 -0.548569)
(2.86871 0 -0.5244)
(2.73875 0 -0.500762)
(2.61026 -2.42677e-23 -0.477267)
(2.48468 0 -0.454316)
(2.36001 0 -0.4314)
(2.23829 -9.604e-20 -0.409066)
(2.11689 0 -0.386647)
(1.99862 0 -0.364878)
(1.88005 1.87521e-19 -0.342892)
(1.76495 -9.26961e-20 -0.321659)
(1.6489 0 -0.300065)
(1.53682 0 -0.279367)
(1.42323 0 -0.258164)
(1.3141 1.74481e-19 -0.238015)
(1.2033 0 -0.21727)
(1.09698 3.35562e-19 -0.197675)
(0.989859 -1.64132e-19 -0.177572)
(0.886184 0 -0.158488)
(0.783806 0 -0.139329)
(0.684139 1.52719e-19 -0.120812)
(0.583662 -2.62046e-23 -0.102506)
(0.499419 1.44602e-19 -0.0860303)
(0.38 -2.80133e-19 -0.0654337)
(0.348522 2.72871e-19 -0.0578708)
(0.170271 2.62242e-19 -0.0259463)
(0.214334 2.56305e-19 -0.0353819)
(0.00821761 2.81646e-23 0.00797751)
(0.0203204 0 -0.00550736)
(-0.00598221 -2.28839e-19 0.0200617)
(-0.402274 0 0.0629855)
(0.297348 0 -0.0412411)
(-0.880261 3.83075e-19 0.177798)
(0.264703 0 -0.0690434)
(-0.687438 0 0.163721)
(-0.337219 0 0.0395893)
(-0.2421 -3.3795e-19 0.0862109)
(-1.28788 0 0.220112)
(0.44461 -3.32447e-19 -0.0640475)
(-2.09025 0 0.408826)
(0.56897 0 -0.142675)
(-1.58093 0 0.340759)
(-0.1474 0 -0.0121243)
(-0.712644 0 0.192224)
(-1.5567 -4.78905e-19 0.264425)
(0.191436 -4.69376e-19 -0.0166937)
(-2.43093 4.04855e-19 0.491406)
(-0.209844 0 -0.0181709)
(-0.989136 0 0.207089)
(-0.769276 -1.49247e-18 0.169516)
(-1.61648 0 0.293458)
(-0.1502 7.13798e-19 0.00340931)
(-1.1264 0 0.271171)
(-1.68055 6.09951e-19 0.293726)
(-0.137287 6.0243e-19 -0.0151369)
(-0.627285 0 0.15281)
(-1.19325 -5.1161e-19 0.227884)
(-0.354032 0 0.0431215)
(32.6391 4.69404e-21 1.03672)
(33.0501 1.14059e-20 1.12359)
(33.4961 -6.91998e-21 1.04037)
(33.8612 -7.82193e-22 0.776777)
(34.0345 7.49671e-21 0.386254)
(33.9599 0 -0.0692556)
(33.6295 0 -0.540638)
(33.0637 -1.64184e-20 -0.992156)
(32.2977 -3.04946e-20 -1.40018)
(31.3739 -7.08828e-22 -1.75168)
(30.336 1.3932e-20 -2.04214)
(29.2245 -1.30015e-20 -2.27293)
(28.0743 1.17577e-20 -2.44888)
(26.9138 0 -2.57657)
(25.7645 0 -2.66319)
(24.6419 -9.54733e-21 -2.71574)
(23.5564 3.49355e-20 -2.74061)
(22.5145 3.21522e-20 -2.74337)
(21.5197 0 -2.72875)
(20.5733 0 -2.70062)
(19.6752 0 -2.66214)
(18.8242 -6.72966e-23 -2.61587)
(18.0185 -2.06804e-20 -2.56382)
(17.2559 9.39256e-21 -2.50761)
(16.5342 1.70682e-20 -2.44851)
(15.851 -3.09891e-20 -2.38752)
(15.2038 1.39823e-20 -2.32543)
(14.5905 1.25993e-20 -2.26284)
(14.0087 1.1314e-20 -2.20025)
(13.4564 0 -2.13801)
(12.9317 -9.02414e-21 -2.07641)
(12.4326 7.98434e-21 -2.01568)
(11.9576 -7.03672e-21 -1.95596)
(11.505 -1.22968e-20 -1.89737)
(11.0733 -2.13262e-20 -1.84001)
(10.6612 0 -1.78391)
(10.2673 0 -1.72913)
(9.89061 -6.45927e-21 -1.67567)
(9.52994 0 -1.62353)
(9.18427 4.16898e-21 -1.57271)
(8.8527 3.15752e-21 -1.52319)
(8.53432 0 -1.47494)
(8.22833 5.47766e-21 -1.42795)
(7.93397 1.16453e-21 -1.38216)
(7.65055 0 -1.33756)
(7.37737 -1.57946e-21 -1.29409)
(7.11387 -2.75865e-21 -1.25173)
(6.8594 0 -1.21042)
(6.61349 9.678e-21 -1.17015)
(6.37555 -5.72406e-21 -1.13083)
(6.1452 -1.3058e-20 -1.09248)
(5.92187 0 -1.055)
(5.70528 -2.48126e-23 -1.0184)
(5.49484 3.3925e-20 -0.98259)
(5.29041 0 -0.947595)
(5.09134 0 -0.913289)
(4.89763 -1.96507e-20 -0.879743)
(4.70855 -2.03452e-20 -0.846791)
(4.52429 4.18243e-20 -0.814548)
(4.34396 4.28074e-20 -0.782802)
(4.168 4.36039e-20 -0.751728)
(3.99529 -4.42374e-20 -0.721047)
(3.82661 -8.94258e-20 -0.691016)
(3.66052 0 -0.661267)
(3.49821 0 -0.632164)
(3.33781 -9.07825e-20 -0.603223)
(3.18108 0 -0.574947)
(3.02556 0 -0.546702)
(2.87372 9.02023e-20 -0.519168)
(2.72237 0 -0.49152)
(2.5749 -8.88725e-20 -0.464667)
(2.42713 -3.22753e-23 -0.437535)
(2.28363 8.7024e-20 -0.411328)
(2.13904 0 -0.384663)
(1.99929 0 -0.359098)
(1.85774 0 -0.332892)
(1.7216 1.63642e-19 -0.307991)
(1.58344 0 -0.282317)
(1.45074 -1.57387e-19 -0.258088)
(1.31699 3.07891e-19 -0.233163)
(1.18747 0 -0.20955)
(1.05945 0 -0.185764)
(0.934522 0 -0.162747)
(0.809291 -2.58601e-23 -0.140191)
(0.701687 -1.35561e-19 -0.119164)
(0.55585 -2.62496e-19 -0.0946349)
(0.50844 -2.55746e-19 -0.0833307)
(0.295032 2.45677e-19 -0.0458799)
(0.337778 0 -0.0553957)
(0.0867335 2.29101e-19 -0.00215135)
(0.103071 0 -0.0206795)
(0.0459001 2.14345e-19 0.0190073)
(-0.387545 0 0.0545522)
(0.370207 0 -0.0463158)
(-0.965522 0 0.196531)
(0.355826 -3.84691e-19 -0.0919779)
(-0.791359 -3.31433e-19 0.196713)
(-0.315096 0 0.0254826)
(-0.296571 3.16352e-19 0.114309)
(-1.41191 -3.01654e-19 0.23246)
(0.475315 3.11062e-19 -0.0579138)
(-2.392 -2.52871e-19 0.467149)
(0.677717 0 -0.17525)
(-1.87902 0 0.412094)
(-0.0859202 0 -0.040821)
(-0.885524 0 0.249233)
(-1.69529 4.47819e-19 0.276042)
(0.156309 -9.93703e-23 0.00239193)
(-2.79968 -7.56941e-19 0.569198)
(-0.189986 0 -0.0455244)
(-1.21358 0 0.259291)
(-0.87344 6.97466e-19 0.196645)
(-1.83851 0 0.328075)
(-0.173219 -6.67047e-19 -0.000469983)
(-1.34795 0 0.335001)
(-1.82167 -1.13963e-18 0.306363)
(-0.160499 0 -0.0250404)
(-0.74586 0 0.189167)
(-1.32751 4.77924e-19 0.249787)
(-0.309636 0 0.0228265)
(32.6635 0 0.683638)
(32.9649 -5.24809e-21 0.726736)
(33.3017 0 0.677002)
(33.6321 -6.60078e-21 0.513688)
(33.8929 -1.34567e-20 0.251644)
(34.0331 0 -0.0774032)
(34.0244 6.71308e-21 -0.442036)
(33.8554 0 -0.816159)
(33.5266 9.00826e-22 -1.17957)
(33.0474 -2.58532e-20 -1.5178)
(32.4341 0 -1.82154)
(31.7068 0 -2.08587)
(30.8878 -1.10587e-20 -2.30922)
(29.9995 0 -2.49232)
(29.0628 0 -2.63745)
(28.0968 0 -2.74789)
(27.1175 -1.63198e-20 -2.82741)
(26.1385 -1.50352e-20 -2.87999)
(25.1701 -1.36426e-20 -2.90948)
(24.2205 0 -2.91953)
(23.2954 0 -2.91343)
(22.3989 -1.06296e-20 -2.89408)
(21.5335 9.70051e-21 -2.86399)
(20.7007 -8.83397e-21 -2.82531)
(19.901 -1.6053e-20 -2.77985)
(19.1343 2.90296e-20 -2.72911)
(18.4001 -5.42536e-23 -2.67435)
(17.6976 -1.18496e-20 -2.6166)
(17.0257 -1.06406e-20 -2.55671)
(16.3832 0 -2.49538)
(15.7688 0 -2.43316)
(15.1813 -7.50873e-21 -2.37053)
(14.6192 0 -2.30784)
(14.0813 1.15638e-20 -2.24541)
(13.5664 1.0026e-20 -2.18345)
(13.0731 -8.59811e-21 -2.12217)
(12.6003 0 -2.06171)
(12.1469 6.07351e-21 -2.00217)
(11.7119 4.95498e-21 -1.94364)
(11.2941 3.66095e-24 -1.88619)
(10.8926 -5.94198e-21 -1.82985)
(10.5065 0 -1.77465)
(10.1349 -2.58195e-21 -1.7206)
(9.7771 0 -1.6677)
(9.43222 0 -1.61596)
(9.09953 0 -1.56534)
(8.77839 1.37208e-23 -1.51585)
(8.46808 0 -1.46744)
(8.16808 -4.54098e-21 -1.42011)
(7.87769 1.07455e-20 -1.37379)
(7.5965 1.22708e-20 -1.3285)
(7.3238 0 -1.28415)
(7.05931 -1.48444e-20 -1.24077)
(6.80232 -3.18289e-20 -1.19825)
(6.55266 0 -1.15663)
(6.30955 0 -1.11578)
(6.07303 1.84589e-20 -1.07578)
(5.84218 1.9073e-20 -1.03644)
(5.61726 -1.96325e-20 -0.997915)
(5.39718 -4.01362e-20 -0.959944)
(5.18249 0 -0.92275)
(4.97182 0 -0.885994)
(4.76611 2.84027e-23 -0.849996)
(4.56361 -4.22663e-20 -0.814309)
(4.36578 0 -0.779383)
(4.17033 4.25969e-20 -0.744626)
(3.97938 0 -0.710658)
(3.78997 0 -0.676704)
(3.60507 0 -0.643599)
(3.42081 0 -0.610332)
(3.24127 3.4204e-23 -0.578018)
(3.06142 -3.19795e-23 -0.545345)
(2.88673 -8.15773e-20 -0.513783)
(2.71076 0 -0.481641)
(2.54058 -7.9336e-20 -0.450827)
(2.36828 0 -0.419205)
(2.20241 -1.53447e-19 -0.389164)
(2.03411 1.50468e-19 -0.35814)
(1.8723 -1.47477e-19 -0.32889)
(1.70916 -1.44293e-19 -0.298708)
(1.55105 0 -0.270178)
(1.39464 1.37561e-19 -0.241326)
(1.24167 0 -0.2134)
(1.08903 -1.30479e-19 -0.186209)
(0.955007 -1.26964e-19 -0.160095)
(0.780615 2.45907e-19 -0.131473)
(0.71343 0 -0.115596)
(0.463592 -4.60163e-19 -0.0727032)
(0.500951 0 -0.0815503)
(0.202681 2.14474e-19 -0.0178302)
(0.222609 0 -0.0421443)
(0.126388 2.00651e-19 0.0147043)
(-0.33376 0 0.0380344)
(0.457994 3.83778e-19 -0.0514864)
(-1.0118 -3.35449e-19 0.207781)
(0.461693 3.59994e-19 -0.117588)
(-0.874725 3.10123e-19 0.228035)
(-0.261962 0 0.00392595)
(-0.346034 -5.91931e-19 0.145267)
(-1.48928 5.64235e-19 0.233875)
(0.494511 0 -0.0458511)
(-2.64645 2.36495e-19 0.515447)
(0.777137 0 -0.207031)
(-2.16186 0 0.482324)
(-0.00195645 -4.8602e-19 -0.0771125)
(-1.0631 0 0.311892)
(-1.77759 0 0.273861)
(0.101619 4.10316e-19 0.0294504)
(-3.11528 7.07349e-19 0.636566)
(-0.168219 3.75244e-19 -0.0769095)
(-1.43803 0 0.313901)
(-0.955211 0 0.219648)
(-2.03551 0 0.356534)
(-0.194654 0 -0.00532576)
(-1.55621 5.37543e-19 0.399095)
(-1.90041 5.32213e-19 0.303615)
(-0.187982 0 -0.0352413)
(-0.841759 0 0.223357)
(-1.42307 0 0.261417)
(-0.220568 0 -0.00904615)
(32.6623 4.19984e-21 0.395366)
(32.8943 0 0.411156)
(33.15 4.91715e-21 0.370323)
(33.4147 0 0.256839)
(33.6576 6.01865e-21 0.0712585)
(33.8471 0 -0.171716)
(33.9603 -6.30944e-21 -0.452946)
(33.9823 1.15703e-20 -0.754495)
(33.9038 2.36225e-20 -1.0612)
(33.7202 7.28545e-22 -1.36108)
(33.431 0 -1.64513)
(33.0396 0 -1.90712)
(32.5526 0 -2.14321)
(31.9792 0 -2.35132)
(31.3305 0 -2.5307)
(30.6183 0 -2.68161)
(29.8553 1.47057e-20 -2.80509)
(29.0536 -1.36271e-20 -2.90271)
(28.2248 1.28186e-20 -2.97647)
(27.3794 0 -3.02856)
(26.5265 0 -3.06134)
(25.6741 9.78733e-21 -3.07711)
(24.8285 8.95537e-21 -3.07813)
(23.9949 8.17388e-21 -3.0665)
(23.1774 0 -3.04417)
(22.379 -1.3605e-20 -3.01285)
(21.6018 -2.45351e-20 -2.9741)
(20.8473 1.10349e-20 -2.92925)
(20.1164 0 -2.87949)
(19.4097 0 -2.82581)
(18.7271 0 -2.76908)
(18.0685 7.01975e-21 -2.71002)
(17.4336 0 -2.64925)
(16.8218 0 -2.58729)
(16.2324 9.3928e-21 -2.52458)
(15.6648 8.07712e-21 -2.46148)
(15.1181 0 -2.39829)
(14.5915 5.70118e-21 -2.33526)
(14.0842 -9.30705e-21 -2.27258)
(13.5955 -3.68523e-21 -2.21043)
(13.1243 2.79278e-21 -2.14894)
(12.6701 0 -2.08821)
(12.2318 0 -2.02832)
(11.8089 0 -1.96933)
(11.4005 -2.00595e-22 -1.9113)
(11.0058 0 -1.85423)
(10.6244 2.42199e-21 -1.79818)
(10.2553 3.3689e-21 -1.74311)
(9.89812 0 -1.68907)
(9.55203 -5.03842e-21 -1.63601)
(9.21662 0 -1.58396)
(8.89114 0 -1.53284)
(8.57527 -1.38908e-20 -1.48272)
(8.2682 2.16456e-23 -1.43346)
(7.96978 1.58067e-20 -1.38515)
(7.67911 0 -1.33764)
(7.39626 0 -1.29105)
(7.12014 -1.78999e-20 -1.24514)
(6.85109 0 -1.20013)
(6.58781 3.76627e-20 -1.1557)
(6.33099 0 -1.11213)
(6.07898 0 -1.06902)
(5.83292 7.86664e-20 -1.02677)
(5.59073 7.92744e-20 -0.984831)
(5.35413 3.98214e-20 -0.943766)
(5.12042 0 -0.902856)
(4.89211 0 -0.862859)
(4.66567 3.98076e-20 -0.822836)
(4.44463 7.92692e-20 -0.783806)
(4.22439 0 -0.744543)
(4.00976 7.81495e-20 -0.706401)
(3.79481 -7.73575e-20 -0.667793)
(3.58595 7.64733e-20 -0.630496)
(3.37561 -7.54225e-20 -0.59247)
(3.17208 7.43593e-20 -0.556016)