/*--------------------------------*- C++ -*----------------------------------*\
| =========                 |                                                 |
| \\      /  F ield         | OpenFOAM: The Open Source CFD Toolbox           |
|  \\    /   O peration     | Version:  2412                                  |
|   \\  /    A nd           | Website:  www.openfoam.com                      |
|    \\/     M anipulation  |                                                 |
\*---------------------------------------------------------------------------*/
FoamFile
{
    version     2.0;
    format      ascii;
    arch        "LSB;label=32;scalar=64";
    class       volVectorField;
    location    "1.435";
    object      U_0;
}
// * * * * * * * * * * * * * * * * * * * * * * * * * * * * * * * * * * * * * //

dimensions      [0 1 -1 0 0 0 0];

internalField   nonuniform List<vector> 
12600
(
(18.7482 1.23742e-21 2.09656)
(11.6239 1.60892e-20 0.451734)
(7.35341 1.8915e-20 -0.477746)
(5.09062 0 -0.709328)
(3.97703 1.70894e-20 -0.682423)
(3.33595 1.59107e-20 -0.607675)
(2.89444 0 -0.539949)
(2.56299 0 -0.484445)
(2.3032 -4.77851e-20 -0.438939)
(2.0929 0 -0.401158)
(1.91839 2.003e-20 -0.369254)
(1.77073 1.83343e-20 -0.341896)
(1.6438 -1.67902e-20 -0.318134)
(1.53327 0 -0.297272)
(1.43596 -1.40617e-20 -0.278784)
(1.34946 0 -0.262266)
(1.27195 4.72101e-20 -0.247404)
(1.20201 0 -0.233947)
(1.1385 -1.97394e-20 -0.221694)
(1.08051 -1.80433e-20 -0.21048)
(1.0273 1.64613e-20 -0.200171)
(0.978261 5.35725e-24 -0.190655)
(0.932882 0 -0.181838)
(0.890739 -2.47812e-20 -0.173642)
(0.851472 0 -0.165998)
(0.814774 0 -0.158848)
(0.780382 -1.83204e-20 -0.152144)
(0.748067 0 -0.145842)
(0.717632 4.13936e-24 -0.139904)
(0.688903 1.31867e-20 -0.134298)
(0.661729 1.17202e-20 -0.128994)
(0.635976 1.03622e-20 -0.123966)
(0.611524 -9.10496e-21 -0.119192)
(0.588268 -1.58831e-20 -0.114651)
(0.566113 -1.37308e-20 -0.110325)
(0.544974 1.17303e-20 -0.106197)
(0.524774 0 -0.102253)
(0.505444 -8.20574e-21 -0.0984795)
(0.486922 0 -0.0948639)
(0.469149 5.19724e-21 -0.0913951)
(0.452075 0 -0.0880632)
(0.435651 1.76129e-23 -0.0848587)
(0.419834 0 -0.0817733)
(0.404583 1.60275e-23 -0.0787988)
(0.389862 -9.1224e-22 -0.0759284)
(0.375634 2.62169e-21 -0.0731549)
(0.361871 -4.20955e-21 -0.0704726)
(0.348539 0 -0.067875)
(0.335615 0 -0.0653577)
(0.323068 -8.12367e-21 -0.0629143)
(0.310881 -1.83787e-20 -0.0605417)
(0.299021 -2.02971e-20 -0.0582336)
(0.28748 1.95284e-23 -0.055988)
(0.276223 -2.35348e-20 -0.0537985)
(0.265248 0 -0.0516644)
(0.254519 2.61199e-20 -0.0495787)
(0.244039 2.71739e-20 -0.0475422)
(0.23377 2.80736e-20 -0.0455471)
(0.223723 0 -0.0435958)
(0.213853 0 -0.0416795)
(0.204183 0 -0.0398025)
(0.194659 -6.10736e-20 -0.0379545)
(0.185317 0 -0.036142)
(0.176093 0 -0.0343531)
(0.167034 1.25279e-19 -0.0325966)
(0.158068 0 -0.0308587)
(0.149256 0 -0.0291508)
(0.140515 0 -0.0274573)
(0.131918 -1.25183e-19 -0.0257919)
(0.123377 1.24534e-19 -0.0241376)
(0.114973 1.23678e-19 -0.0225101)
(0.106615 2.35046e-23 -0.0208918)
(0.0983903 -1.21374e-19 -0.0192994)
(0.090214 0 -0.0177166)
(0.082166 1.18387e-19 -0.0161586)
(0.0741837 0 -0.0146134)
(0.0663252 0 -0.0130921)
(0.0585668 0 -0.0115901)
(0.0509274 2.86537e-23 -0.010111)
(0.0434395 2.17111e-19 -0.00866101)
(0.0360705 2.12526e-19 -0.00723381)
(0.0289116 -2.07735e-19 -0.00584687)
(0.0218934 -2.02817e-19 -0.00448692)
(0.0151217 0 -0.00317411)
(0.00857583 0 -0.00190473)
(0.0022245 3.74547e-19 -0.000672342)
(-0.00366537 -7.27527e-19 0.000471102)
(-0.00963116 7.05549e-19 0.00162973)
(-0.0145883 3.41769e-19 0.00259362)
(-0.0203278 0 0.00370934)
(-0.0239622 -6.38783e-19 0.0044189)
(-0.029748 3.0797e-19 0.00554323)
(-0.0317091 -2.96912e-19 0.00593132)
(-0.0376348 5.70898e-19 0.0070813)
(-0.0381654 0 0.00719396)
(-0.0435648 0 0.00824175)
(-0.0439284 0 0.00831631)
(-0.0471405 0 0.00894891)
(-0.0494447 0 0.00939644)
(-0.050198 0 0.00954162)
(-0.0512087 -4.20769e-19 0.0097512)
(-0.0549405 -8.03474e-19 0.0104536)
(-0.045269 -7.65015e-19 0.00866116)
(-0.073841 0 0.0140669)
(-0.0356647 0 0.00670055)
(-0.0623437 0 0.0120999)
(-0.071808 -6.24496e-19 0.0135548)
(-0.0390297 -1.18453e-18 0.00753469)
(-0.0862611 5.52027e-19 0.0164951)
(-0.045873 0 0.0086052)
(-0.0574843 -9.91078e-19 0.0112825)
(-0.0931605 0 0.0177561)
(-0.046993 -9.06899e-19 0.00901716)
(-0.0633764 8.16012e-19 0.0127913)
(-0.196455 -7.69356e-19 0.0375127)
(-0.0984798 -7.5954e-19 0.019055)
(-0.297609 6.74607e-19 0.0568743)
(-0.303174 -1.75537e-22 0.0570078)
(-0.189503 7.09138e-19 0.0354598)
(-0.0838557 0 0.0154326)
(29.1605 -1.24918e-21 4.02902)
(25.1143 0 1.86029)
(20.2495 -1.9144e-20 -0.212815)
(16.081 0 -1.21202)
(13.1199 -1.73165e-20 -1.50774)
(11.0761 -3.03949e-20 -1.51873)
(9.60314 -1.40658e-20 -1.44105)
(8.49057 0 -1.34337)
(7.61729 3.55888e-22 -1.24793)
(6.91042 -2.1852e-20 -1.16081)
(6.3243 2.00578e-20 -1.08269)
(5.82889 1.84083e-20 -1.01284)
(5.40355 -1.6892e-20 -0.950256)
(5.03361 1.54971e-20 -0.893955)
(4.70832 2.84817e-20 -0.843077)
(4.41959 0 -0.796889)
(4.16123 -6.44659e-23 -0.75477)
(3.9284 2.1855e-20 -0.716199)
(3.71726 2.00266e-20 -0.680736)
(3.52474 0 -0.64801)
(3.34832 0 -0.617705)
(3.18593 1.52062e-20 -0.589551)
(3.03585 0 -0.56332)
(2.89665 1.25623e-20 -0.538811)
(2.76711 -2.27639e-20 -0.515853)
(2.64619 0 -0.494295)
(2.533 1.85691e-20 -0.474008)
(2.42676 0 -0.454875)
(2.32682 -1.49609e-20 -0.436797)
(2.23259 -2.67151e-20 -0.419682)
(2.14356 -2.374e-20 -0.403451)
(2.05927 -1.04884e-20 -0.388032)
(1.97933 9.21333e-21 -0.373363)
(1.90337 3.21528e-20 -0.359385)
(1.83109 2.779e-20 -0.346046)
(1.76219 0 -0.333301)
(1.69642 0 -0.321106)
(1.63354 -1.74093e-23 -0.309423)
(1.57335 0 -0.298217)
(1.51566 -5.24683e-21 -0.287455)
(1.46029 0 -0.277108)
(1.40707 -5.33972e-21 -0.267148)
(1.35588 0 -0.257551)
(1.30656 -9.97037e-22 -0.248293)
(1.259 0 -0.239353)
(1.21307 -2.63987e-21 -0.230709)
(1.16869 0 -0.222346)
(1.12574 0 -0.214243)
(1.08414 6.94837e-21 -0.206387)
(1.0438 0 -0.198759)
(1.00464 0 -0.19135)
(0.966574 0 -0.18414)
(0.929559 2.20678e-20 -0.177125)
(0.893492 4.71586e-20 -0.170282)
(0.858355 0 -0.163612)
(0.824038 0 -0.157092)
(0.790545 -2.71496e-20 -0.150726)
(0.757754 -2.80723e-20 -0.144487)
(0.725697 0 -0.138386)
(0.694234 0 -0.132394)
(0.663427 0 -0.126525)
(0.633115 0 -0.120745)
(0.603396 -6.14904e-20 -0.115078)
(0.574078 6.19619e-20 -0.109483)
(0.545301 -1.24566e-19 -0.103991)
(0.516842 0 -0.0985551)
(0.488881 0 -0.0932153)
(0.461167 0 -0.087918)
(0.433918 4.75294e-23 -0.0827112)
(0.40686 -1.23343e-19 -0.0775363)
(0.380242 -1.22383e-19 -0.0724477)
(0.353783 2.42398e-19 -0.0673851)
(0.327746 3.60103e-23 -0.0624057)
(0.301868 -1.18331e-19 -0.0574526)
(0.276395 -1.16702e-19 -0.0525801)
(0.251129 0 -0.0477431)
(0.22625 0 -0.0429835)
(0.201679 0 -0.0382794)
(0.177477 2.17455e-19 -0.0336492)
(0.153736 0 -0.0291047)
(0.13036 0 -0.0246329)
(0.107625 2.03314e-19 -0.0202823)
(0.0853165 1.98289e-19 -0.0160155)
(0.0637644 0 -0.0118935)
(0.0428924 0 -0.00790226)
(0.0226294 0 -0.00403023)
(0.00375518 7.0813e-19 -0.000421384)
(-0.0153146 -4.27749e-23 0.00321964)
(-0.0313419 3.31903e-19 0.0062819)
(-0.0496903 -3.2062e-19 0.00978363)
(-0.0616659 6.19049e-19 0.0120664)
(-0.0801248 2.98107e-19 0.0155939)
(-0.0869265 5.74245e-19 0.0168751)
(-0.105843 0 0.0205065)
(-0.108076 0 0.0208922)
(-0.125539 0 0.0242678)
(-0.1269 0 0.0244676)
(-0.137979 4.64984e-19 0.026628)
(-0.144887 0 0.0279374)
(-0.1482 0 0.0284959)
(-0.151797 -4.03457e-19 0.0292934)
(-0.163079 3.84842e-19 0.0312299)
(-0.137397 1.46425e-18 0.0266727)
(-0.217904 -6.88977e-19 0.0419013)
(-0.107328 0 0.020119)
(-0.192104 0 0.0378279)
(-0.210307 0 0.0398319)
(-0.122333 5.64157e-19 0.0237208)
(-0.25875 -5.25366e-19 0.0500218)
(-0.136984 0 0.0255442)
(-0.184103 1.88328e-18 0.03638)
(-0.274694 8.86789e-19 0.0528015)
(-0.150542 1.72052e-18 0.0282461)
(-0.212025 0 0.0436224)
(-0.585722 0 0.113327)
(-0.306166 -7.18905e-19 0.0600765)
(-0.879479 0 0.172781)
(-0.855738 -6.92733e-19 0.162252)
(-0.540003 -6.69551e-19 0.100429)
(-0.225074 0 0.0412526)
(31.904 0 3.9008)
(31.0883 0 2.82194)
(28.5569 -1.29643e-20 1.02554)
(25.2122 0 -0.382007)
(21.9588 0 -1.22634)
(19.1848 1.51104e-20 -1.65124)
(16.9258 1.33204e-20 -1.81953)
(15.1003 0 -1.85107)
(13.6124 4.20738e-22 -1.8173)
(12.3819 2.07018e-20 -1.75473)
(11.3484 -3.7796e-20 -1.68088)
(10.4674 -1.74418e-20 -1.60411)
(9.70682 1.14513e-22 -1.5284)
(9.04276 -1.46847e-20 -1.45561)
(8.4573 -1.34679e-20 -1.38652)
(7.93671 1.22967e-20 -1.32139)
(7.47031 -2.26225e-20 -1.26021)
(7.04968 -2.07107e-20 -1.20281)
(6.66809 0 -1.14898)
(6.32006 0 -1.09847)
(6.00114 1.57718e-20 -1.05103)
(5.70763 1.4378e-20 -1.00643)
(5.43646 0 -0.964441)
(5.18503 0 -0.924851)
(4.95115 2.15702e-20 -0.887471)
(4.73293 0 -0.852126)
(4.52877 -3.51839e-20 -0.818658)
(4.33728 1.58203e-20 -0.786921)
(4.15723 0 -0.756785)
(3.98757 1.26581e-20 -0.72813)
(3.82738 1.12487e-20 -0.700847)
(3.67582 0 -0.674839)
(3.53216 -8.74102e-21 -0.650014)
(3.39577 -1.52362e-20 -0.626291)
(3.26606 1.2196e-23 -0.603595)
(3.14251 0 -0.581856)
(3.02465 0 -0.561012)
(2.91206 7.86705e-21 -0.541003)
(2.80435 0 -0.521777)
(2.70118 0 -0.503283)
(2.60224 0 -0.485477)
(2.50721 0 -0.468313)
(2.41586 0 -0.451756)
(2.32792 0 -0.435765)
(2.24317 0 -0.420309)
(2.16141 2.45531e-21 -0.405353)
(2.08244 -3.9552e-21 -0.390871)
(2.00607 0 -0.376828)
(1.93216 -6.57381e-21 -0.363207)
(1.86053 0 -0.349972)
(1.79106 0 -0.337112)
(1.72357 1.91875e-20 -0.324592)
(1.65799 0 -0.312404)
(1.59414 -2.22811e-20 -0.300513)
(1.53198 2.35356e-20 -0.28892)
(1.4713 0 -0.277583)
(1.41213 2.56624e-20 -0.266512)
(1.35423 0 -0.255662)
(1.29767 0 -0.24505)
(1.24219 0 -0.234625)
(1.18791 5.66342e-20 -0.224415)
(1.13453 5.74311e-20 -0.214359)
(1.08222 2.85411e-23 -0.204499)
(1.03065 -1.16992e-19 -0.194763)
(0.980053 2.50328e-23 -0.185208)
(0.930048 0 -0.17575)
(0.880935 0 -0.16646)
(0.832283 -1.17505e-19 -0.157241)
(0.78446 3.82768e-23 -0.148183)
(0.736995 0 -0.139177)
(0.69031 0 -0.130323)
(0.64392 -1.14275e-19 -0.121511)
(0.598272 2.89723e-23 -0.112846)
(0.552911 2.69687e-23 -0.104223)
(0.508259 0 -0.0957416)
(0.463966 0 -0.0873162)
(0.420346 -2.12746e-19 -0.0790282)
(0.37725 2.08827e-19 -0.0708287)
(0.334791 0 -0.0627601)
(0.293114 0 -0.0548317)
(0.252062 0 -0.0470308)
(0.212095 0 -0.0394319)
(0.172852 0 -0.0319761)
(0.134896 0 -0.0247674)
(0.0980863 0 -0.0177751)
(0.0623295 0 -0.010996)
(0.0289084 -6.65744e-19 -0.00464647)
(-0.00479751 -3.22418e-19 0.00173044)
(-0.03338 -3.11946e-19 0.00716009)
(-0.0658151 3.0128e-19 0.0132838)
(-0.0874903 -5.81533e-19 0.0173962)
(-0.120066 -2.8001e-19 0.0235534)
(-0.132854 -2.69625e-19 0.0259443)
(-0.166241 0 0.032311)
(-0.170975 0 0.0330941)
(-0.202105 0 0.0391249)
(-0.20483 0 0.0394446)
(-0.22553 -4.36232e-19 0.043548)
(-0.237094 0 0.0456512)
(-0.244306 0 0.0468562)
(-0.251077 3.78292e-19 0.0484605)
(-0.270333 0 0.0514358)
(-0.231566 -6.86206e-19 0.0453942)
(-0.359631 6.4565e-19 0.0686991)
(-0.180554 0 0.0333697)
(-0.327633 0 0.0655674)
(-0.344981 0 0.0641917)
(-0.21231 5.28333e-19 0.0415918)
(-0.432583 0 0.0836283)
(-0.22949 -4.77341e-19 0.0418249)
(-0.323436 3.79526e-23 0.0652361)
(-0.453552 -8.29941e-19 0.0865898)
(-0.266498 -1.61002e-18 0.0494526)
(-0.382963 0 0.0827012)
(-0.974123 6.81511e-19 0.188784)
(-0.526119 6.72448e-19 0.105298)
(-1.45133 5.96523e-19 0.289172)
(-1.35645 0 0.251539)
(-0.866928 6.26054e-19 0.154531)
(-0.337782 0 0.0578743)
(32.4253 0 2.95945)
(32.9905 0 2.7724)
(32.436 1.22555e-20 1.72677)
(30.7914 0 0.524214)
(28.5362 -1.2295e-20 -0.482088)
(26.1177 2.50073e-20 -1.20587)
(23.7961 0 -1.66947)
(21.6877 -2.18195e-20 -1.93393)
(19.8261 2.09175e-20 -2.06327)
(18.2018 1.89113e-20 -2.1076)
(16.7871 1.77704e-20 -2.10079)
(15.551 -1.61474e-20 -2.06413)
(14.4648 1.50288e-20 -2.0106)
(13.5042 -2.73912e-20 -1.94802)
(12.6493 0 -1.88113)
(11.8835 -2.31969e-20 -1.81281)
(11.1937 0 -1.7448)
(10.569 0 -1.67814)
(10.0003 0 -1.61346)
(9.4803 1.62961e-20 -1.55109)
(9.00285 -3.41344e-23 -1.4912)
(8.56276 -2.59534e-23 -1.43384)
(8.15568 1.2358e-20 -1.37899)
(7.77789 0 -1.3266)
(7.42624 0 -1.27656)
(7.098 0 -1.22878)
(6.7908 3.32615e-20 -1.18315)
(6.50262 -5.91507e-24 -1.13955)
(6.23165 0 -1.09789)
(5.97633 0 -1.05803)
(5.73528 0 -1.01989)
(5.50727 0 -0.983364)
(5.29121 1.65341e-20 -0.948355)
(5.08614 0 -0.914775)
(4.89118 -1.24626e-20 -0.882541)
(4.70554 0 -0.851574)
(4.52854 0 -0.821801)
(4.35953 -7.46051e-21 -0.793152)
(4.19792 0 -0.765562)
(4.0432 0 -0.73897)
(3.89489 3.53035e-21 -0.71332)
(3.75254 -4.84888e-21 -0.688556)
(3.61576 0 -0.664632)
(3.48417 -9.57886e-22 -0.641494)
(3.35744 0 -0.619105)
(3.23523 -4.61965e-21 -0.597415)
(3.11727 1.89259e-23 -0.576392)
(3.00328 0 -0.55599)
(2.89302 0 -0.536184)
(2.78622 7.23391e-21 -0.516927)
(2.68271 1.63754e-20 -0.498204)
(2.58222 -3.62064e-20 -0.479964)
(2.48463 0 -0.462202)
(2.38968 -2.09847e-20 -0.444864)
(2.29729 -2.22167e-20 -0.427954)
(2.20718 -2.32522e-20 -0.411413)
(2.11935 -2.4177e-20 -0.395256)
(2.03347 0 -0.379416)
(1.94962 0 -0.363922)
(1.86744 -5.24498e-20 -0.348698)
(1.78706 -1.06811e-19 -0.333786)
(1.70807 -5.41673e-20 -0.319098)
(1.63071 3.06254e-23 -0.304695)
(1.55449 5.51445e-20 -0.290472)
(1.47974 5.54018e-20 -0.276513)
(1.4059 0 -0.262693)
(1.33341 0 -0.24912)
(1.26164 1.10734e-19 -0.23565)
(1.19111 2.20451e-19 -0.222413)
(1.12113 0 -0.209252)
(1.05232 1.08625e-19 -0.196314)
(0.983968 1.07561e-19 -0.183433)
(0.916713 1.06374e-19 -0.170768)
(0.849889 2.09963e-19 -0.158159)
(0.784109 0 -0.145759)
(0.718851 0 -0.133434)
(0.654578 2.00199e-19 -0.121311)
(0.591051 -3.92912e-19 -0.109308)
(0.528451 -1.92534e-19 -0.0974974)
(0.466957 0 -0.0858804)
(0.406366 0 -0.0744498)
(0.347313 0 -0.0633031)
(0.289294 0 -0.0523611)
(0.233111 0 -0.0417733)
(0.178551 0 -0.0314868)
(0.125515 -3.22347e-19 -0.0215188)
(0.0757799 4.10641e-23 -0.012141)
(0.0257014 3.02741e-19 -0.00276467)
(-0.0171275 0 0.00531768)
(-0.0653266 2.82797e-19 0.014307)
(-0.0982701 2.72923e-19 0.0205181)
(-0.146595 0 0.0295339)
(-0.166722 -2.52958e-19 0.0332699)
(-0.216243 -4.85653e-19 0.042614)
(-0.224456 0 0.0439458)
(-0.271061 0 0.052936)
(-0.275623 0 0.0533876)
(-0.307962 -4.0893e-19 0.0598426)
(-0.324213 0 0.0626643)
(-0.336996 0 0.0647685)
(-0.347517 3.54444e-19 0.0673469)
(-0.375407 -3.37952e-19 0.0713067)
(-0.326457 0 0.0646884)
(-0.497571 0 0.0946503)
(-0.255154 0 0.0467869)
(-0.467309 0 0.0949382)
(-0.474467 0 0.0871714)
(-0.30896 8.2428e-24 0.061159)
(-0.605928 0 0.117305)
(-0.323813 4.4668e-19 0.0580873)
(-0.474477 -8.2474e-19 0.0971923)
(-0.628676 0 0.11961)
(-0.395953 -2.04646e-23 0.0730652)
(-0.574213 0 0.128328)
(-1.35733 -7.2869e-23 0.264123)
(-0.75601 0 0.154131)
(-2.00556 -5.57728e-19 0.405603)
(-1.79508 0 0.327876)
(-1.16798 5.8497e-19 0.200752)
(-0.415337 0 0.0661523)
(32.5273 0 2.10759)
(33.2845 0 2.23233)
(33.6306 0 1.75634)
(33.2654 0 0.961276)
(32.2415 1.16055e-20 0.11844)
(30.7659 -9.01778e-22 -0.631617)
(29.0446 0 -1.23343)
(27.2363 2.05946e-20 -1.67782)
(25.4509 0 -1.98197)
(23.7546 -3.51992e-20 -2.17414)
(22.1798 0 -2.28296)
(20.7365 1.52443e-20 -2.33245)
(19.4224 0 -2.34095)
(18.2286 2.58616e-20 -2.32171)
(17.1439 -1.17769e-20 -2.28406)
(16.1569 2.17567e-20 -2.23445)
(15.2564 -1.99126e-20 -2.17733)
(14.4327 -1.82734e-20 -2.11576)
(13.6769 0 -2.05186)
(12.9813 -1.5388e-20 -1.98707)
(12.3392 -1.40544e-20 -1.9224)
(11.7449 -2.55984e-20 -1.85852)
(11.1931 -1.16692e-20 -1.7959)
(10.6795 0 -1.73482)
(10.2003 0 -1.67548)
(9.75216 0 -1.61797)
(9.33204 -1.56983e-20 -1.56236)
(8.9374 -1.41212e-20 -1.50866)
(8.56593 0 -1.45684)
(8.21562 0 -1.40687)
(7.88465 1.00451e-20 -1.35869)
(7.57143 0 -1.31226)
(7.27452 1.42564e-24 -1.26751)
(6.99263 -1.36234e-20 -1.22436)
(6.72459 1.17808e-20 -1.18276)
(6.46936 0 -1.14262)
(6.226 0 -1.1039)
(5.99364 7.04139e-21 -1.06652)
(5.7715 0 -1.03041)
(5.55887 0 -0.995512)
(5.35509 -3.33146e-21 -0.961773)
(5.15956 4.57543e-21 -0.929129)
(4.97174 0 -0.897528)
(4.79111 9.03748e-22 -0.866914)
(4.61722 0 -0.837242)
(4.44961 2.16965e-21 -0.808455)
(4.28791 3.50668e-21 -0.780517)
(4.1317 0 -0.753373)
(3.98069 5.80855e-21 -0.726993)
(3.8345 -6.82199e-21 -0.701321)
(3.69288 -3.08534e-20 -0.676339)
(3.55547 1.70555e-20 -0.651984)
(3.4221 -1.84721e-20 -0.628249)
(3.2924 2.54881e-23 -0.605069)
(3.16628 0 -0.582448)
(3.04335 2.19161e-20 -0.56031)
(2.92358 2.27855e-20 -0.538678)
(2.80656 -2.35143e-20 -0.517463)
(2.69235 2.41541e-20 -0.496705)
(2.58048 4.94152e-20 -0.476301)
(2.47112 5.02934e-20 -0.456314)
(2.36373 -5.09593e-20 -0.43662)
(2.25859 5.15251e-20 -0.417307)
(2.15506 0 -0.398232)
(2.05358 0 -0.379508)
(1.95339 5.22184e-20 -0.360969)
(1.85507 0 -0.342758)
(1.75776 0 -0.324684)
(1.66216 -1.03714e-19 -0.306922)
(1.56736 0 -0.289257)
(1.47416 -1.022e-19 -0.271892)
(1.38159 -2.02336e-19 -0.254599)
(1.29052 0 -0.237595)
(1.20004 -9.8716e-20 -0.220659)
(1.11098 0 -0.204005)
(1.02261 0 -0.18744)
(0.935564 -1.88103e-19 -0.171148)
(0.849492 1.84626e-19 -0.155004)
(0.764657 3.93357e-23 -0.13912)
(0.681258 0 -0.123479)
(0.599053 0 -0.108088)
(0.518845 0 -0.0930616)
(0.439995 -1.64627e-19 -0.0783048)
(0.36354 1.6026e-19 -0.0640119)
(0.289199 0 -0.050104)
(0.216871 6.05137e-19 -0.0366321)
(0.148833 2.93419e-19 -0.0239005)
(0.0804183 -5.68153e-19 -0.0112272)
(0.0214233 -2.74745e-19 -0.000168207)
(-0.0444411 -5.3056e-19 0.0119606)
(-0.0904533 0 0.0205851)
(-0.156373 0 0.0327159)
(-0.185425 2.3719e-19 0.0380761)
(-0.252942 4.55307e-19 0.050676)
(-0.265824 -4.37214e-19 0.0527332)
(-0.329922 0 0.0650498)
(-0.336933 0 0.0656442)
(-0.383202 3.83142e-19 0.074948)
(-0.404168 3.65435e-19 0.0783743)
(-0.424565 0 0.0817262)
(-0.439366 -3.31946e-19 0.08547)
(-0.476868 3.16455e-19 0.0902988)
(-0.420437 0 0.084248)
(-0.630272 0 0.119144)
(-0.330737 0 0.0602629)
(-0.609079 0 0.125555)
(-0.59768 0 0.108072)
(-0.411888 -4.62713e-19 0.0824906)
(-0.776787 0 0.150408)
(-0.42049 0 0.0743093)
(-0.635484 0 0.132173)
(-0.799347 7.25929e-19 0.151259)
(-0.53941 7.04157e-19 0.099421)
(-0.782231 0 0.180588)
(-1.73102 -5.95771e-19 0.33785)
(-0.99231 0 0.206013)
(-2.53441 -5.21106e-19 0.519573)
(-2.16308 0 0.385878)
(-1.4421 -5.46677e-19 0.23668)
(-0.450744 0 0.062985)
(32.5989 -4.96807e-21 1.49405)
(33.1817 -6.17027e-21 1.63296)
(33.7079 7.32974e-21 1.44126)
(33.9329 8.26201e-21 0.979546)
(33.7397 0 0.386851)
(33.14 -9.90673e-21 -0.229803)
(32.2073 0 -0.804577)
(31.0326 1.73997e-20 -1.30043)
(29.7046 1.66349e-20 -1.70192)
(28.2997 3.2083e-20 -2.00948)
(26.8775 -1.47589e-20 -2.23283)
(25.4801 1.37703e-20 -2.38547)
(24.1347 0 -2.48134)
(22.857 0 -2.53308)
(21.6543 1.1103e-20 -2.55133)
(20.5283 -1.14534e-22 -2.54464)
(19.4773 1.76002e-22 -2.51966)
(18.498 1.35831e-22 -2.48148)
(17.5857 0 -2.43393)
(16.7356 0 -2.3799)
(15.9428 0 -2.32154)
(15.2025 2.40527e-20 -2.26047)
(14.5103 1.09382e-20 -2.19788)
(13.8622 0 -2.13468)
(13.2543 0 -2.0715)
(12.6833 1.63475e-20 -2.00885)
(12.1461 0 -1.94707)
(11.6398 0 -1.88641)
(11.162 0 -1.82706)
(10.7104 0 -1.76912)
(10.283 -6.33359e-24 -1.71268)
(9.87778 0 -1.65777)
(9.49315 -1.55738e-24 -1.60442)
(9.12755 1.28421e-20 -1.55262)
(8.7796 2.71197e-24 -1.50235)
(8.44802 0 -1.45359)
(8.13165 0 -1.4063)
(7.82944 0 -1.36044)
(7.54041 0 -1.31596)
(7.26367 0 -1.27283)
(6.99841 0 -1.23098)
(6.74386 0 -1.19037)
(6.49935 -2.54298e-21 -1.15096)
(6.2642 -8.87998e-22 -1.11269)
(6.03785 0 -1.07551)
(5.8197 2.00931e-21 -1.03937)
(5.60929 0 -1.00423)
(5.40609 0 -0.97004)
(5.2097 -1.09265e-20 -0.936762)
(5.01963 0 -0.904334)
(4.83557 1.45141e-20 -0.87274)
(4.65706 0 -0.841907)
(4.48387 3.47609e-20 -0.811832)
(4.31552 2.47094e-23 -0.782433)
(4.15189 0 -0.753722)
(3.99246 0 -0.725605)
(3.83722 0 -0.698114)
(3.68561 4.42434e-20 -0.671138)
(3.53772 -4.54446e-20 -0.644731)
(3.39293 -4.64314e-20 -0.618764)
(3.25146 -4.72572e-20 -0.593317)
(3.1126 9.58568e-20 -0.568235)
(2.97672 4.84137e-20 -0.543633)
(2.84299 0 -0.519325)
(2.71195 0 -0.495461)
(2.58265 -2.44342e-23 -0.471825)
(2.4558 0 -0.448606)
(2.33031 0 -0.425554)
(2.20707 -9.74238e-20 -0.402898)
(2.08489 0 -0.380359)
(1.96479 0 -0.358201)
(1.84554 1.90083e-19 -0.336126)
(1.72824 -9.3927e-20 -0.314421)
(1.6117 0 -0.29279)
(1.49698 0 -0.27152)
(1.38313 0 -0.250349)
(1.27098 1.76658e-19 -0.229528)
(1.16002 0 -0.208875)
(1.05064 3.39642e-19 -0.188557)
(0.943012 -1.66155e-19 -0.168524)
(0.836894 0 -0.148813)
(0.733226 0 -0.129541)
(0.631255 1.54483e-19 -0.110608)
(0.532238 -2.59607e-23 -0.0922497)
(0.435844 1.46146e-19 -0.0743595)
(0.341961 -2.83786e-19 -0.0570325)
(0.253381 2.75109e-19 -0.0405868)
(0.164411 2.66369e-19 -0.0242795)
(0.0870717 2.576e-19 -0.00988981)
(0.00138657 2.95537e-23 0.00568933)
(-0.0597587 0 0.0170837)
(-0.145364 -2.30884e-19 0.0326145)
(-0.185192 0 0.0399225)
(-0.272801 0 0.0560757)
(-0.291784 4.09588e-19 0.0590863)
(-0.375643 0 0.0751063)
(-0.385878 0 0.0758984)
(-0.448681 0 0.0885691)
(-0.474398 -3.42162e-19 0.0924881)
(-0.504879 0 0.0975188)
(-0.524442 -3.10695e-19 0.102559)
(-0.572856 0 0.108378)
(-0.511475 0 0.103733)
(-0.755993 0 0.14211)
(-0.406526 0 0.0737759)
(-0.750458 0 0.156961)
(-0.713458 -4.56736e-19 0.126843)
(-0.520248 -4.32793e-19 0.105544)
(-0.942832 4.02678e-19 0.182542)
(-0.519891 0 0.0907328)
(-0.804055 0 0.169726)
(-0.96477 -1.35729e-18 0.181751)
(-0.696559 0 0.128717)
(-1.0024 5.9194e-19 0.238575)
(-2.0904 0 0.409297)
(-1.23021 5.49379e-19 0.260103)
(-3.0295 4.86965e-19 0.629155)
(-2.45121 0 0.425272)
(-1.68788 -5.10545e-19 0.26267)
(-0.435525 0 0.0468488)
(32.6528 4.67857e-21 1.04252)
(33.0634 1.13731e-20 1.12885)
(33.5091 -6.90422e-21 1.04518)
(33.8739 -7.83245e-22 0.781167)
(34.0467 7.47983e-21 0.390246)
(33.9716 0 -0.0656457)
(33.6406 0 -0.537394)
(33.0738 -1.63843e-20 -0.989257)
(32.3068 -3.04244e-20 -1.3976)
(31.3819 -7.09259e-22 -1.74936)
(30.3427 1.38962e-20 -2.04005)
(29.2298 -1.29653e-20 -2.27102)
(28.0783 1.17212e-20 -2.4471)
(26.9165 0 -2.57488)
(25.7658 0 -2.66155)
(24.6419 -9.51108e-21 -2.71412)
(23.5551 3.47914e-20 -2.73898)
(22.5121 3.20093e-20 -2.74172)
(21.5163 0 -2.72706)
(20.5689 0 -2.69887)
(19.6698 0 -2.66034)
(18.8179 -6.7229e-23 -2.614)
(18.0114 -2.05468e-20 -2.56189)
(17.2481 9.32694e-21 -2.50561)
(16.5258 1.69393e-20 -2.44644)
(15.8419 -3.07361e-20 -2.38538)
(15.1941 1.38583e-20 -2.32321)
(14.5802 1.24778e-20 -2.26055)
(13.9979 1.11951e-20 -2.19789)
(13.4451 0 -2.13558)
(12.9199 -8.91021e-21 -2.07391)
(12.4204 7.87305e-21 -2.01311)
(11.9449 -6.92788e-21 -1.95332)
(11.4919 -1.20843e-20 -1.89466)
(11.0598 -2.09111e-20 -1.83723)
(10.6472 0 -1.78107)
(10.253 0 -1.72621)
(9.87589 -6.26664e-21 -1.67268)
(9.51482 0 -1.62047)
(9.16877 3.98602e-21 -1.56958)
(8.8368 2.97931e-21 -1.51998)
(8.51802 0 -1.47166)
(8.21163 4.80191e-21 -1.42459)
(7.91685 8.35662e-22 -1.37872)
(7.63301 0 -1.33404)
(7.35939 -1.89068e-21 -1.29048)
(7.09543 -3.0612e-21 -1.24803)
(6.84048 0 -1.20663)
(6.59409 1.02503e-20 -1.16626)
(6.35563 -6.00226e-21 -1.12685)
(6.12475 -1.35989e-20 -1.08839)
(5.90085 0 -1.0508)
(5.68367 -2.50004e-23 -1.01408)
(5.47261 3.49192e-20 -0.978147)
(5.26752 0 -0.943018)
(5.06776 0 -0.908581)
(4.87331 -2.0107e-20 -0.874882)
(4.68348 -2.07891e-20 -0.841788)
(4.49837 4.26867e-20 -0.809371)
(4.31722 4.36466e-20 -0.777471)
(4.14028 4.44191e-20 -0.746195)
(3.96669 -4.50311e-20 -0.715351)
(3.79688 -9.09667e-20 -0.685083)
(3.62984 0 -0.655164)
(3.46621 0 -0.625783)
(3.30481 -9.22033e-20 -0.59667)
(3.14652 0 -0.568063)
(2.98999 0 -0.539651)
(2.8363 9.1502e-20 -0.511722)
(2.68398 0 -0.483925)
(2.53428 -9.00984e-20 -0.456595)
(2.38566 -3.25025e-23 -0.429353)
(2.23947 8.81796e-20 -0.402566)
(2.09423 0 -0.375853)
(1.95126 0 -0.349584)
(1.80934 0 -0.323417)
(1.66952 1.65684e-19 -0.297682)
(1.53111 0 -0.272128)
(1.39463 -1.59301e-19 -0.246988)
(1.26022 3.11685e-19 -0.22217)
(1.12765 0 -0.197748)
(0.997958 0 -0.173835)
(0.870328 0 -0.150334)
(0.746192 -2.56736e-23 -0.127516)
(0.625211 -1.37008e-19 -0.105249)
(0.50723 -2.65925e-19 -0.0836808)
(0.395593 -2.57843e-19 -0.0631241)
(0.28356 2.49552e-19 -0.0428141)
(0.185414 0 -0.0246937)
(0.0774616 2.32956e-19 -0.00532465)
(-0.00117669 0 0.00924202)
(-0.108842 2.16261e-19 0.0284844)
(-0.161599 0 0.0381121)
(-0.271663 0 0.0581424)
(-0.298463 0 0.0623734)
(-0.404628 -3.66995e-19 0.0825139)
(-0.419068 -3.51351e-19 0.083571)
(-0.501349 0 0.100196)
(-0.531887 3.20181e-19 0.10447)
(-0.575411 -3.05881e-19 0.111692)
(-0.600134 2.90709e-19 0.118159)
(-0.661203 -2.77062e-19 0.124993)
(-0.597121 0 0.122725)
(-0.872841 0 0.163059)
(-0.481247 0 0.0871783)
(-0.888557 0 0.188606)
(-0.820695 4.27089e-19 0.143215)
(-0.632625 -1.1594e-23 0.130171)
(-1.10149 -7.52908e-19 0.213147)
(-0.622118 0 0.107497)
(-0.977053 0 0.209284)
(-1.12423 6.34267e-19 0.210807)
(-0.865965 0 0.160917)
(-1.22894 -5.53169e-19 0.301251)
(-2.43043 0 0.477302)
(-1.4635 -1.02664e-18 0.315218)
(-3.48236 0 0.731903)
(-2.65129 0 0.44327)
(-1.90388 4.7693e-19 0.277921)
(-0.360237 0 0.0150106)
(32.6767 0 0.689784)
(32.9778 -5.23204e-21 0.732381)
(33.3144 0 0.682192)
(33.6444 -6.58493e-21 0.518467)
(33.9049 -1.34241e-20 0.256042)
(34.0448 0 -0.0733586)
(34.0356 6.69626e-21 -0.438324)
(33.866 0 -0.812759)
(33.5365 9.01543e-22 -1.17647)
(33.0566 -2.57853e-20 -1.51496)
(32.4423 0 -1.81893)
(31.714 0 -2.08347)
(30.8939 -1.10244e-20 -2.30699)
(30.0044 0 -2.49023)
(29.0665 0 -2.63546)
(28.0991 0 -2.74597)
(27.1186 -1.6252e-20 -2.82553)
(26.1383 -1.4968e-20 -2.87812)
(25.1687 -1.35761e-20 -2.9076)
(24.2179 0 -2.91763)
(23.2918 0 -2.91148)
(22.3942 -1.05658e-20 -2.89208)
(21.5278 9.63771e-21 -2.86193)
(20.694 -8.77224e-21 -2.82318)
(19.8934 -1.59318e-20 -2.77764)
(19.1258 2.87918e-20 -2.72682)
(18.3908 -5.41347e-23 -2.67197)
(17.6876 -1.17353e-20 -2.61414)
(17.015 -1.05288e-20 -2.55416)
(16.3718 0 -2.49274)
(15.7568 0 -2.43044)
(15.1686 -7.40407e-21 -2.36772)
(14.6059 0 -2.30495)
(14.0675 1.1364e-20 -2.24243)
(13.5519 9.83088e-21 -2.18039)
(13.0581 -8.40787e-21 -2.11901)
(12.5848 0 -2.05846)
(12.1309 5.89238e-21 -1.99883)
(11.6953 4.77855e-21 -1.94022)
(11.277 3.77925e-24 -1.88267)
(10.875 -5.60699e-21 -1.82624)
(10.4884 0 -1.77094)
(10.1163 -2.26439e-21 -1.71679)
(9.75795 0 -1.66379)
(9.41253 0 -1.61194)
(9.07928 0 -1.56122)
(8.75758 1.38657e-23 -1.51162)
(8.44668 0 -1.46309)
(8.14607 -4.80987e-21 -1.41564)
(7.85505 1.12683e-20 -1.3692)
(7.57319 1.27791e-20 -1.32378)
(7.2998 0 -1.2793)
(7.03459 -1.53247e-20 -1.23577)
(6.77684 -3.27627e-20 -1.1931)
(6.52638 0 -1.15132)
(6.28245 0 -1.1103)
(6.04503 1.88875e-20 -1.07012)
(5.81328 1.94897e-20 -1.03061)
(5.58734 -2.00374e-20 -0.991876)
(5.36627 -4.09239e-20 -0.953721)
(5.15041 0 -0.916282)
(4.93867 0 -0.87933)
(4.73161 2.86244e-23 -0.843048)
(4.52797 -4.29709e-20 -0.807157)
(4.32856 0 -0.771895)
(4.13191 4.32636e-20 -0.736932)
(3.9391 0 -0.702566)
(3.74848 0 -0.668413)
(3.56136 0 -0.634831)
(3.37593 0 -0.601387)
(3.19372 3.44876e-23 -0.568498)
(3.01284 -3.22141e-23 -0.535693)
(2.83492 -8.26608e-20 -0.503431)
(2.65815 0 -0.471232)
(2.48413 -8.03553e-20 -0.439567)
(2.31132 0 -0.407993)
(2.14104 -1.55362e-19 -0.37694)
(1.97237 1.52364e-19 -0.346067)
(1.80602 -1.4927e-19 -0.315695)
(1.64201 -1.46071e-19 -0.285667)
(1.4802 0 -0.256117)
(1.32167 1.39224e-19 -0.227133)
(1.16557 0 -0.19864)
(1.01348 -1.32052e-19 -0.170932)
(0.865094 -1.28318e-19 -0.143858)
(0.720169 2.4912e-19 -0.117623)
(0.582666 0 -0.0925196)
(0.444741 -4.67426e-19 -0.0677959)
(0.323013 0 -0.0455032)
(0.190019 2.18083e-19 -0.0219588)
(0.0911984 0 -0.00377492)
(-0.0412221 2.02417e-19 0.0195268)
(-0.109401 0 0.0319024)
(-0.244592 3.73774e-19 0.0561626)
(-0.281251 -3.5883e-19 0.0619379)
(-0.412585 3.43434e-19 0.0866448)
(-0.432453 3.28761e-19 0.088079)
(-0.537538 0 0.109288)
(-0.573037 -5.99046e-19 0.113782)
(-0.633096 5.72237e-19 0.123811)
(-0.663302 0 0.131784)
(-0.739246 2.59119e-19 0.1397)
(-0.674429 0 0.140725)
(-0.978575 0 0.181723)
(-0.553014 -4.49967e-19 0.100233)
(-1.02009 0 0.219863)
(-0.918183 0 0.157027)
(-0.746946 3.78262e-19 0.156092)
(-1.24993 7.03658e-19 0.241691)
(-0.726778 3.41305e-19 0.124689)
(-1.15057 0 0.250125)
(-1.27682 0 0.238467)
(-1.04481 0 0.195643)
(-1.45504 0 0.367293)
(-2.7457 4.85812e-19 0.5408)
(-1.68458 4.79539e-19 0.369846)
(-3.88457 0 0.825288)
(-2.75561 0 0.438631)
(-2.08792 0 0.281915)
(-0.21442 0 -0.0353279)
(32.675 4.1824e-21 0.401786)
(32.9068 0 0.417123)
(33.1622 4.90008e-21 0.37586)
(33.4267 0 0.261976)
(33.6693 6.00291e-21 0.076025)
(33.8585 0 -0.167293)
(33.9714 -6.29363e-21 -0.448841)
(33.993 1.15376e-20 -0.750685)
(33.9141 2.35578e-20 -1.05767)
(33.7299 7.29152e-22 -1.3578)
(33.4401 0 -1.64207)
(33.0479 0 -1.90427)
(32.5601 0 -2.14055)
(31.9859 0 -2.34881)
(31.3361 0 -2.52833)
(30.6229 0 -2.67935)
(29.8587 1.46419e-20 -2.8029)
(29.0558 -1.35639e-20 -2.90058)
(28.2258 1.27562e-20 -2.97436)
(27.3792 0 -3.02647)
(26.5251 0 -3.05923)
(25.6715 9.72748e-21 -3.07497)
(24.8248 8.89649e-21 -3.07594)
(23.9901 8.11601e-21 -3.06425)
(23.1715 0 -3.04184)
(22.372 -1.34934e-20 -3.01045)
(21.5938 -2.43163e-20 -2.97161)
(20.8384 1.09278e-20 -2.92667)
(20.1066 0 -2.87681)
(19.3989 0 -2.82304)
(18.7155 0 -2.7662)
(18.0561 6.92161e-21 -2.70704)
(17.4204 0 -2.64616)
(16.8079 0 -2.5841)
(16.2178 9.20985e-21 -2.52129)
(15.6494 7.89841e-21 -2.45808)
(15.102 0 -2.39478)
(14.5747 5.53131e-21 -2.33163)
(14.0668 -8.97574e-21 -2.26884)
(13.5774 -3.52376e-21 -2.20658)
(13.1056 2.63551e-21 -2.14497)
(12.6506 0 -2.08412)
(12.2118 0 -2.02411)
(11.7881 0 -1.965)
(11.379 -4.82568e-22 -1.90684)
(10.9837 0 -1.84964)
(10.6016 2.68889e-21 -1.79345)
(10.2318 3.6283e-21 -1.73825)
(9.87382 0 -1.68406)
(9.52695 -5.28378e-21 -1.63084)
(9.19075 0 -1.57864)
(8.86443 0 -1.52736)
(8.54769 -1.43413e-20 -1.47706)
(8.23971 2.18493e-23 -1.42762)
(7.94034 1.62323e-20 -1.37912)
(7.64869 0 -1.33142)
(7.36476 0 -1.2846)
(7.08757 -1.8291e-20 -1.2385)
(6.81731 0 -1.19323)
(6.55287 3.84018e-20 -1.14858)
(6.29466 0 -1.10472)
(6.04139 0 -1.06138)
(5.79374 8.00228e-20 -1.01879)
(5.5502 8.05961e-20 -0.976616)
(5.31175 4.04623e-20 -0.935152)
(5.07663 0 -0.894)
(4.84613 0 -0.85353)
(4.61826 4.03988e-20 -0.813275)
(4.39461 8.04121e-20 -0.773678)
(4.17298 0 -0.734209)
(3.95522 7.92277e-20 -0.695383)
(3.73902 -7.84149e-20 -0.656622)
(3.52638 7.74891e-20 -0.618493)
(3.31505 -7.64214e-20 -0.580401)
(3.10699 7.53147e-20 -0.542934)