/*--------------------------------*- C++ -*----------------------------------*\
| =========                 |                                                 |
| \\      /  F ield         | OpenFOAM: The Open Source CFD Toolbox           |
|  \\    /   O peration     | Version:  2412                                  |
|   \\  /    A nd           | Website:  www.openfoam.com                      |
|    \\/     M anipulation  |                                                 |
\*---------------------------------------------------------------------------*/
FoamFile
{
    version     2.0;
    format      ascii;
    arch        "LSB;label=32;scalar=64";
    class       volScalarField;
    location    "1.01";
    object      p;
}
// * * * * * * * * * * * * * * * * * * * * * * * * * * * * * * * * * * * * * //

dimensions      [0 2 -2 0 0 0 0];

internalField   nonuniform List<scalar> 
12600
(
-0.0830833
-154.867
-204.923
-201.664
-189.189
-177.592
-167.424
-158.328
-150.085
-142.534
-135.547
-129.027
-122.901
-117.112
-111.613
-106.367
-101.342
-96.5131
-91.8576
-87.3571
-82.9955
-78.7589
-74.6353
-70.6139
-66.6856
-62.8419
-59.0754
-55.3795
-51.7482
-48.1761
-44.6583
-41.1902
-37.7677
-34.387
-31.0446
-27.7373
-24.4619
-21.2158
-17.9961
-14.8005
-11.6265
-8.472
-5.33489
-2.213
0.895314
3.99219
7.079
10.1579
13.2298
16.297
19.3601
22.4215
25.4814
28.5425
31.6043
34.6699
37.7383
40.813
43.8922
46.9797
50.073
53.1763
56.2862
59.4072
62.535
65.6748
68.8211
71.9792
75.1435
78.3185
81.4988
84.6875
87.88
91.0765
94.2751
97.4709
100.666
103.851
107.027
110.191
113.325
116.465
119.516
122.632
125.567
128.613
131.515
134.196
137.579
139.12
143.442
144.243
148.161
150.023
150.796
158.463
151.089
163.422
158.761
161.717
171.252
154.736
181.934
162.012
169.948
192.162
146.607
206.61
169.552
172.243
226.464
143.267
222.052
216.431
176.536
225.968
213.128
222.004
208.338
216.635
-24.2347
-123.955
-171.392
-181.003
-177.773
-171.017
-163.256
-155.477
-148.04
-141.019
-134.399
-128.146
-122.218
-116.578
-111.195
-106.04
-101.087
-96.315
-91.7058
-87.2428
-82.9118
-78.7004
-74.5974
-70.5932
-66.6789
-62.8469
-59.0901
-55.4022
-51.7776
-48.2109
-44.6975
-41.2331
-37.8135
-34.4352
-31.0947
-27.7887
-24.5145
-21.269
-18.0499
-14.8545
-11.6807
-8.52604
-5.38872
-2.26653
0.842204
3.93957
7.02693
10.1064
13.179
16.2469
19.3107
22.3729
25.4335
28.4953
31.5579
34.6242
37.6934
40.7688
43.8488
46.9371
50.0311
53.1352
56.2458
59.3676
62.4961
65.6366
68.7836
71.9425
75.1074
78.2832
81.4642
84.6535
87.8468
91.0439
94.2432
97.4398
100.636
103.821
106.998
110.163
113.297
116.438
119.49
122.607
125.543
128.588
131.493
134.171
137.561
139.098
143.422
144.229
148.137
150.02
150.76
158.464
151.08
163.387
158.777
161.667
171.28
154.71
181.895
162.073
169.835
192.238
146.589
206.508
169.695
172.055
226.521
143.329
221.801
216.572
176.538
225.831
213.14
222.019
208.359
216.62
-41.0524
-102.513
-145.306
-162.76
-166.075
-163.435
-158.285
-152.127
-145.69
-139.309
-133.122
-127.172
-121.464
-115.99
-110.732
-105.673
-100.797
-96.0856
-91.5248
-87.1009
-82.8018
-78.6163
-74.5347
-70.5481
-66.6483
-62.8283
-59.0815
-55.4019
-51.7841
-48.2231
-44.7144
-41.2537
-37.8373
-34.4615
-31.1231
-27.8188
-24.5457
-21.3013
-18.0828
-14.8879
-11.7144
-8.55994
-5.42263
-2.30034
0.808583
3.90622
6.99391
10.0738
13.1468
16.2151
19.2795
22.3421
25.4033
28.4656
31.5288
34.5957
37.6655
40.7415
43.8219
46.9108
50.0054
53.11
56.2211
59.3435
62.4726
65.6135
68.7611
71.9205
75.0859
78.2622
81.4437
84.6335
87.8273
91.0249
94.2247
97.4218
100.618
103.804
106.982
110.147
113.282
116.423
119.475
122.593
125.529
128.575
131.482
134.158
137.552
139.085
143.411
144.22
148.125
150.017
150.742
158.465
151.072
163.367
158.788
161.64
171.296
154.691
181.873
162.109
169.775
192.279
146.568
206.452
169.776
171.961
226.561
143.362
221.67
216.644
176.53
225.754
213.15
222.027
208.369
216.611
-48.9707
-88.7719
-124.201
-144.721
-152.928
-154.218
-151.908
-147.689
-142.541
-137.021
-131.421
-125.882
-120.47
-115.213
-110.12
-105.188
-100.41
-95.7765
-91.2782
-86.9047
-82.6465
-78.4946
-74.4406
-70.4767
-66.596
-62.7918
-59.0581
-55.3895
-51.7809
-48.2276
-44.7253
-41.2701
-37.8582
-34.4861
-31.1507
-27.849
-24.578
-21.3352
-18.1181
-14.9243
-11.7515
-8.59765
-5.46075
-2.3387
0.770111
3.86775
6.95553
10.0356
13.1088
16.1775
19.2422
22.3052
25.3668
28.4296
31.4932
34.5606
37.6309
40.7074
43.7884
46.8778
49.9729
53.078
56.1897
59.3125
62.4422
65.5836
68.7317
71.8916
75.0577
78.2345
81.4165
84.6069
87.8012
90.9993
94.1997
97.3973
100.594
103.781
106.959
110.125
113.26
116.402
119.454
122.574
125.51
128.556
131.465
134.138
137.538
139.067
143.396
144.209
148.106
150.013
150.713
158.468
151.062
163.341
158.799
161.601
171.321
154.664
181.848
162.151
169.686
192.347
146.539
206.381
169.882
171.805
226.622
143.388
221.473
216.772
176.514
225.644
213.171
222.04
208.383
216.596
-54.0202
-80.5176
-107.438
-127.11
-138.216
-142.968
-143.598
-141.64
-138.134
-133.778
-129.001
-124.049
-119.062
-114.119
-109.26
-104.507
-99.8667
-95.3417
-90.9292
-86.6245
-82.4219
-78.3153
-74.2985
-70.3654
-66.51
-62.7269
-59.0109
-55.3571
-51.7609
-48.218
-44.7244
-41.2765
-37.8707
-34.5038
-31.1727
-27.8745
-24.6065
-21.3661
-18.151
-14.9588
-11.7873
-8.63437
-5.4982
-2.37669
0.731763
3.82919
6.9169
9.99696
13.0704
16.1392
19.2042
22.2676
25.3296
28.3928
31.4568
34.5247
37.5955
40.6725
43.754
46.844
49.9396
53.0453
56.1575
59.281
62.4112
65.5532
68.7019
71.8624
75.029
78.2064
81.389
84.5799
87.7748
90.9736
94.1745
97.3727
100.57
103.757
106.936
110.103
113.238
116.382
119.434
122.554
125.492
128.538
131.448
134.12
137.525
139.049
143.382
144.196
148.09
150.009
150.687
158.471
151.049
163.315
158.811
161.563
171.345
154.633
181.825
162.192
169.6
192.414
146.502
206.313
169.984
171.659
226.692
143.402
221.28
216.896
176.489
225.531
213.191
222.052
208.396
216.581
-57.3073
-75.4636
-95.081
-111.962
-123.797
-130.712
-133.755
-133.99
-132.298
-129.351
-125.632
-121.467
-117.067
-112.563
-108.037
-103.538
-99.0942
-94.7226
-90.4311
-86.2228
-82.0977
-78.0538
-74.0882
-70.197
-66.3763
-62.622
-58.9299
-55.2961
-51.7166
-48.1878
-44.7061
-41.2682
-37.8708
-34.5109
-31.1857
-27.8925
-24.6287
-21.3918
-18.1796
-14.9897
-11.8202
-8.66888
-5.53398
-2.41344
0.694252
3.79113
6.87847
9.9583
13.0316
16.1005
19.1655
22.2291
25.2913
28.3548
31.4192
34.4875
37.5587
40.6362
43.7182
46.8086
49.9048
53.0111
56.1238
59.2478
62.3785
65.5211
68.6704
71.8314
74.9986
78.1766
81.3598
84.5513
87.7468
90.9461
94.1477
97.3465
100.545
103.732
106.912
110.079
113.215
116.359
119.412
122.533
125.471
128.518
131.43
134.1
137.51
139.031
143.366
144.183
148.071
150.004
150.658
158.476
151.033
163.289
158.823
161.522
171.373
154.598
181.805
162.231
169.505
192.492
146.454
206.243
170.084
171.489
226.779
143.397
221.062
217.045
176.451
225.404
213.218
222.066
208.409
216.563
-58.9282
-71.9506
-86.2865
-99.9869
-111.069
-118.772
-123.319
-125.275
-125.238
-123.737
-121.208
-117.989
-114.328
-110.399
-106.319
-102.167
-97.9963
-93.8392
-89.7177
-85.6452
-81.6291
-77.6734
-73.7794
-69.9469
-66.1745
-62.4601
-58.8012
-55.195
-51.6386
-48.1291
-44.6637
-41.2394
-37.8536
-34.5035
-31.1866
-27.9003
-24.6423
-21.4104
-18.2023
-15.0159
-11.8492
-8.70026
-5.56731
-2.44836
0.658067
3.75395
6.84052
9.91979
12.9927
16.0613
19.1263
22.1898
25.2521
28.3158
31.3805
34.4491
37.5206
40.5984
43.6809
46.7718
49.8684
52.9751
56.0884
59.2129
62.3442
65.4874
68.6372
71.7988
74.9666
78.1451
81.3289
84.5211
87.7172
90.9172
94.1194
97.3188
100.517
103.706
106.886
110.054
113.191
116.336
119.389
122.511
125.45
128.497
131.411
134.079
137.495
139.011
143.35
144.168
148.053
149.998
150.627
158.483
151.014
163.263
158.834
161.479
171.404
154.557
181.787
162.267
169.403
192.58
146.394
206.174
170.178
171.304
226.885
143.371
220.82
217.209
176.401
225.259
213.25
222.081
208.42
216.542
-59.3881
-69.1616
-79.8917
-90.7477
-100.4
-107.944
-113.158
-116.222
-117.46
-117.223
-115.846
-113.62
-110.788
-107.537
-104.005
-100.294
-96.477
-92.6045
-88.7123
-84.8249
-80.959
-77.1255
-73.3314
-69.5808
-65.8758
-62.2171
-58.6044
-55.0367
-51.5125
-48.03
-44.5872
-41.182
-37.8122
-34.4756
-31.1701
-27.8935
-24.6438
-21.4187
-18.2164
-15.0349
-11.8724
-8.72692
-5.59685
-2.48029
0.624173
3.71846
6.80374
9.882
12.9541
16.0222
19.0867
22.15
25.2122
28.2759
31.3406
34.4094
37.4811
40.5593
43.6421
46.7333
49.8304
52.9376
56.0513
59.1763
62.3081
65.4518
68.6022
71.7644
74.9328
78.1119
81.2964
84.4891
87.6859
90.8865
94.0894
97.2895
100.489
103.678
106.859
110.028
113.165
116.311
119.365
122.488
125.427
128.475
131.391
134.057
137.479
138.989
143.333
144.153
148.032
149.99
150.595
158.492
150.992
163.236
158.845
161.433
171.437
154.509
181.773
162.299
169.292
192.679
146.321
206.101
170.264
171.096
227.016
143.32
220.545
217.389
176.337
225.093
213.285
222.098
208.43
216.517
-59.1342
-66.7068
-74.951
-83.517
-91.6125
-98.4943
-103.782
-107.413
-109.501
-110.237
-109.842
-108.54
-106.533
-103.996
-101.071
-97.8688
-94.4742
-90.9512
-87.3474
-83.6979
-80.0281
-76.3566
-72.6964
-69.0568
-65.4439
-61.8618
-58.3129
-54.7985
-51.3189
-47.8738
-44.4625
-41.0838
-37.7364
-34.4187
-31.1292
-27.8661
-24.6278
-21.4124
-18.2184
-15.0438
-11.8872
-8.74663
-5.62072
-2.50765
0.593904
3.68578
6.76908
9.84572
12.9165
15.9836
19.0473
22.1101
25.1718
28.2352
31.2998
34.3686
37.4404
40.5187
43.6017
46.6933
49.7907
52.8983
56.0124
59.1379
62.2702
65.4145
68.5654
71.7282
74.8972
78.0769
81.262
84.4554
87.6529
90.8541
94.0578
97.2586
100.459
103.649
106.83
110
113.138
116.285
119.339
122.464
125.403
128.452
131.37
134.033
137.463
138.966
143.316
144.137
148.012
149.982
150.561
158.504
150.966
163.21
158.855
161.384
171.475
154.454
181.765
162.325
169.171
192.79
146.233
206.029
170.336
170.862
227.177
143.24
220.228
217.585
176.255
224.9
213.323
222.116
208.439
216.488
-58.4083
-64.3917
-70.8676
-77.6769
-84.3593
-90.3863
-95.3838
-99.1786
-101.746
-103.155
-103.526
-103.006
-101.748
-99.8976
-97.5848
-94.9178
-91.9849
-88.8565
-85.5879
-82.2218
-78.7912
-75.3211
-71.8304
-68.3334
-64.8405
-61.3594
-57.8956
-54.4528
-51.0337
-47.6397
-44.2714
-40.9292
-37.6127
-34.3211
-31.0538
-27.8096
-24.5872
-21.3854
-18.2029
-15.0381
-11.8897
-8.75623
-5.63627
-2.5282
0.569126
3.65747
6.73781
9.81201
12.8808
15.9462
19.0086
22.0703
25.1313
28.1941
31.2583
34.3268
37.3985
40.4768
43.5599
46.6516
49.7493
52.8572
55.9717
59.0976
62.2304
65.3751
68.5266
71.6899
74.8595
78.0399
81.2257
84.4197
87.6179
90.8199
94.0242
97.2258
100.427
103.617
106.8
109.971
113.109
116.257
119.312
122.438
125.378
128.428
131.347
134.009
137.445
138.941
143.298
144.12
147.992
149.972
150.522
158.519
150.935
163.183
158.864
161.332
171.516
154.391
181.762
162.343
169.037
192.916
146.126
205.957
170.391
170.596
227.374
143.129
219.86
217.793
176.154
224.678
213.366
222.137
208.446
216.455
-57.3401
-62.1314
-67.3089
-72.7866
-78.282
-83.4407
-87.9621
-91.6514
-94.4139
-96.234
-97.1538
-97.2539
-96.6339
-95.4028
-93.6678
-91.5263
-89.0628
-86.3485
-83.4417
-80.3898
-77.2307
-73.9943
-70.7045
-67.3795
-64.034
-60.6789
-57.3227
-53.9719
-50.6312
-47.3041
-43.993
-40.6995
-37.4245
-34.1684
-30.9313
-27.7128
-24.5125
-21.3295
-18.1629
-15.0117
-11.875
-8.75133
-5.63976
-2.53881
0.552479
3.63573
6.71178
9.78239
12.8482
15.9111
18.9715
22.0315
25.0912
28.153
31.2163
34.2842
37.3555
40.4336
43.5166
46.6083
49.7061
52.8142
55.929
59.0552
62.1884
65.3336
68.4856
71.6495
74.8197
78.0007
81.1871
84.3818
87.5808
90.7835
93.9886
97.1909
100.393
103.584
106.768
109.939
113.078
116.228
119.283
122.411
125.351
128.402
131.323
133.983
137.427
138.915
143.28
144.101
147.971
149.96
150.488
158.535
150.899
163.158
158.872
161.276
171.562
154.317
181.768
162.353
168.889
193.057
145.997
205.888
170.424
170.291
227.613
142.981
219.431
218.014
176.03
224.423
213.413
222.159
208.45
216.416
-56.0103
-59.8886
-64.0872
-68.5466
-73.076
-77.4401
-81.4208
-84.847
-87.6022
-89.6247
-90.9018
-91.4611
-91.3563
-90.6576
-89.4441
-87.7959
-85.7879
-83.4868
-80.9504
-78.2277
-75.3592
-72.3784
-69.3122
-66.1827
-63.0074
-59.8004
-56.5728
-53.3334
-50.0893
-46.8457
-43.6068
-40.3755
-37.1542
-33.9444
-30.7472
-27.563
-24.3921
-21.2343
-18.0895
-14.9569
-11.8361
-8.72611
-5.62621
-2.53522
0.547592
3.62364
6.69356
9.759
12.8204
15.8797
18.937
21.9946
25.0521
28.1123
31.1743
34.2412
37.3117
40.3892
43.4717
46.5633
49.6609
52.7691
55.884
59.0105
62.144
65.2896
68.4421
71.6065
74.7773
77.9589
81.1461
84.3415
87.5412
90.7447
93.9507
97.1538
100.357
103.549
106.733
109.906
113.046
116.197
119.253
122.382
125.323
128.375
131.298
133.957
137.407
138.888
143.261
144.081
147.949
149.945
150.449
158.556
150.855
163.133
158.878
161.216
171.611
154.231
181.784
162.352
168.726
193.216
145.844
205.824
170.433
169.941
227.909
142.791
218.931
218.249
175.879
224.136
213.468
222.183
208.453
216.373
-54.4798
-57.6473
-61.0894
-64.7568
-68.5081
-72.1828
-75.6305
-78.7181
-81.3358
-83.4043
-84.8797
-85.7522
-86.0397
-85.7782
-85.0179
-83.8173
-82.2371
-80.3356
-78.1662
-75.7765
-73.2077
-70.4947
-67.667
-64.7489
-61.7608
-58.719
-55.637
-52.5258
-49.3943
-46.2494
-43.097
-39.9414
-36.7862
-33.6341
-30.487
-27.3465
-24.2136
-21.0887
-17.9724
-14.8645
-11.765
-8.67339
-5.58932
-2.51193
0.559199
3.62525
6.68662
9.74479
12.8
15.8541
18.907
21.9608
25.0153
28.0729
31.1328
34.198
37.2672
40.3436
43.4254
46.5164
49.6137
52.7217
55.8366
58.9632
62.0969
65.2429
68.3957
71.5606
74.732
77.9143
81.1021
84.2983
87.4988
90.7031
93.91
97.1141
100.318
103.511
106.696
109.87
113.011
116.163
119.221
122.351
125.293
128.347
131.271
133.928
137.387
138.858
143.241
144.059
147.927
149.928
150.409
158.577
150.808
163.113
158.883
161.153
171.666
154.134
181.812
162.34
168.544
193.394
145.662
205.768
170.418
169.539
228.223
142.553
218.353
218.502
175.696
223.82
213.535
222.21
208.454
216.318
-52.7967
-55.4003
-58.2448
-61.2861
-64.41
-67.502
-70.4602
-73.1882
-75.5946
-77.6012
-79.1512
-80.2126
-80.7776
-80.8565
-80.4736
-79.6654
-78.4755
-76.9506
-75.1363
-73.0761
-70.8091
-68.3704
-65.7902
-63.0945
-60.3055
-57.4416
-54.5183
-51.5484
-48.5424
-45.5091
-42.4556
-39.3876
-36.3099
-33.2262
-30.1395
-27.0521
-23.9659
-20.882
-17.8016
-14.7251
-11.653
-8.58522
-5.52191
-2.46252
0.593
3.64558
6.69532
9.74351
12.7902
15.8369
18.8836
21.9321
24.9822
28.036
31.0928
34.1555
37.2225
40.2974
43.3778
46.4678
49.5644
52.6719
55.7865
58.913
62.0467
65.1929
68.3461
71.5114
74.6833
77.8661
81.0547
84.2516
87.453
90.6582
93.8661
97.0711
100.276
103.471
106.657
109.832
112.974
116.128
119.186
122.318
125.261
128.316
131.242
133.898
137.365
138.827
143.22
144.036
147.905
149.909
150.369
158.602
150.758
163.087
158.886
161.083
171.727
154.019
181.856
162.314
168.344
193.592
145.447
205.726
170.375
169.077
228.615
142.26
217.69
218.782
175.48
223.482
213.619
222.241
208.451
216.257
-50.9899
-53.1401
-55.5058
-58.0454
-60.6607
-63.2658
-65.7914
-68.1708
-70.3336
-72.2114
-73.7463
-74.8969
-75.6394
-75.9664
-75.8825
-75.4046
-74.5592
-73.3792
-71.9005
-70.1595
-68.1913
-66.0288
-63.7016
-61.236
-58.6553
-55.9793
-53.2251
-50.407
-47.5372
-44.6259
-41.6816
-38.7113
-35.7209
-32.7151
-29.6978
-26.6722
-23.6409
-20.6059
-17.5687
-14.5304
-11.492
-8.45396
-5.41679
-2.38032
0.65513
3.6902
6.72468
9.75962
12.7948
15.8316
18.8698
21.911
24.9548
28.0034
31.0557
34.1147
37.1786
40.2509
43.3293
46.4176
49.5129
52.6194
55.7333
58.8594
61.993
65.1391
68.2925
71.4581
74.6305
77.8138
81.0032
84.2008
87.4032
90.6092
93.8183
97.0243
100.23
103.426
106.614
109.79
112.934
116.089
119.148
122.282
125.227
128.283
131.212
133.866
137.342
138.794
143.198
144.012
147.881
149.888
150.322
158.631
150.699
163.066
158.887
161.015
171.787
153.893
181.916
162.273
168.124
193.815
145.195
205.701
170.307
168.547
229.082
141.908
216.939
219.098
175.231
223.13
213.724
222.277
208.446
216.186
-49.0806
-50.8632
-52.8405
-54.9733
-57.1734
-59.3727
-61.5241
-63.5825
-65.4962
-67.2094
-68.6699
-69.8348
-70.6729
-71.1658
-71.3053
-71.0928
-70.5397
-69.6655
-68.495
-67.056
-65.3777
-63.4886
-61.4163
-59.1859
-56.8207
-54.341
-51.7649
-49.108
-46.3838
-43.6039
-40.7778
-37.914
-35.0194
-32.0997
-29.1598
-26.2037
-23.2348
-20.2555
-17.2683
-14.2746
-11.2761
-8.27352
-5.26789
-2.25937
0.751312
3.76454
6.77975
9.7978
12.8181
15.8421
18.8689
21.9005
24.9358
27.9771
31.0233
34.0769
37.1364
40.205
43.2803
46.3661
49.4593
52.5642
55.677
58.8021
61.9351
65.0809
68.2342
71.4
74.5727
77.7565
80.9466
84.1449
87.3483
90.5552
93.7655
96.9727
100.18
103.377
106.566
109.744
112.89
116.046
119.107
122.242
125.189
128.246
131.179
133.831
137.316
138.759
143.174
143.987
147.856
149.865
150.285
158.663
150.634
163.046
158.886
160.942
171.855
153.741
182
162.214
167.884
194.062
144.902
205.697
170.217
167.944
229.637
141.496
216.102
219.455
174.953
222.774
213.849
222.32
208.438
216.103
-47.086
-48.5677
-50.227
-52.0263
-53.8847
-55.7457
-57.5765
-59.3479
-61.023
-62.5581
-63.9091
-65.0361
-65.9068
-66.4972
-66.7916
-66.7813
-66.4658
-65.8528
-64.9564
-63.7952
-62.3911
-60.7672
-58.947
-56.9535
-54.8083
-52.5317
-50.1417
-47.6548
-45.0851
-42.4454
-39.7464
-36.9975
-34.2067
-31.3808
-28.5257
-25.6461
-22.7461
-19.8291
-16.898
-13.9548
-11.0018
-8.04
-5.07101
-2.0953
0.886028
3.87308
6.86496
9.86231
12.8643
15.872
18.8846
21.9036
24.9279
27.9598
30.9976
34.0442
37.0975
40.1609
43.2318
46.3139
49.4041
52.5065
55.6173
58.7409
61.8728
65.0178
68.1707
71.3362
74.5091
77.6932
80.8838
84.0828
87.2871
90.495
93.7067
96.915
100.124
103.323
106.514
109.693
112.84
115.999
119.062
122.199
125.149
128.206
131.144
133.793
137.289
138.722
143.147
143.961
147.83
149.839
150.225
158.697
150.562
163.029
158.883
160.868
171.921
153.585
182.094
162.143
167.624
194.336
144.566
205.723
170.108
167.262
230.248
141.035
215.191
219.861
174.648
222.432
213.994
222.369
208.434
216.007
-45.0192
-46.2528
-47.6493
-49.1728
-50.7479
-52.3258
-53.8837
-55.403
-56.8581
-58.2157
-59.4398
-60.4959
-61.3538
-61.9881
-62.3794
-62.5136
-62.3821
-61.9834
-61.3222
-60.4087
-59.2569
-57.8836
-56.3076
-54.548
-52.6241
-50.5546
-48.357
-46.0475
-43.6407
-41.1498
-38.5865
-35.961
-33.2823
-30.5581
-27.7951
-24.9989
-22.1746
-19.326
-16.4568
-13.5697
-10.6674
-7.75141
-4.82382
-1.88546
1.06218
4.01893
6.98356
9.95649
12.9366
15.9248
18.9199
21.9235
24.9342
27.954
30.9812
34.0185
37.0637
40.1201
43.1849
46.262
49.3478
52.4466
55.5544
58.6756
61.8056
64.9492
68.1011
71.2659
74.4386
77.6226
80.8137
84.0131
87.2184
90.4272
93.6402
96.8499
100.061
103.261
106.454
109.636
112.785
115.945
119.011
122.15
125.104
128.16
131.105
133.751
137.257
138.684
143.116
143.934
147.799
149.812
150.186
158.732
150.486
163.003
158.879
160.791
171.99
153.41
182.208
162.052
167.355
194.629
144.191
205.773
169.995
166.501
230.913
140.543
214.222
220.29
174.343
222.1
214.154
222.433
208.423
215.895
-42.8904
-43.9183
-45.096
-46.3895
-47.728
-49.0684
-50.3941
-51.6942
-52.9513
-54.1402
-55.2324
-56.1991
-57.0137
-57.6522
-58.0944
-58.3236
-58.327
-58.0965
-57.6299
-56.9298
-56.0031
-54.8605
-53.5149
-51.9813
-50.2755
-48.4138
-46.412
-44.2854
-42.0484
-39.7142
-37.2949
-34.8013
-32.243
-29.6285
-26.9655
-24.2601
-21.5183
-18.7446
-15.9434
-13.118
-10.2716
-7.40642
-4.5249
-1.62828
1.28152
4.20403
7.13765
10.0826
13.0374
16.0028
18.9775
21.9627
24.9569
27.962
30.9761
34.0019
37.0369
40.0844
43.1413
46.2115
49.2914
52.3853
55.4887
58.6064
61.7335
64.8747
68.0249
71.1884
74.3603
77.5438
80.7349
83.9345
87.1405
90.3501
93.5644
96.7754
99.9879
103.19
106.385
109.569
112.721
115.884
118.953
122.093
125.053
128.107
131.063
133.702
137.222
138.643
143.079
143.906
147.764
149.784
150.133
158.765
150.408
163.001
158.877
160.715
172.061
153.222
182.338
161.947
167.072
194.949
143.767
205.863
169.884
165.679
231.624
140.049
213.236
220.757
174.03
221.788
214.321
222.5
208.428
215.769
-40.708
-41.5642
-42.5586
-43.6591
-44.7988
-45.939
-47.0672
-48.1777
-49.259
-50.2925
-51.2556
-52.1248
-52.8776
-53.4928
-53.9511
-54.2354
-54.3309
-54.2264
-53.9144
-53.3919
-52.66
-51.7234
-50.5897
-49.2691
-47.7735
-46.1159
-44.3098
-42.3689
-40.3065
-38.1354
-35.8674
-33.5135
-31.0838
-28.5872
-26.032
-23.4251
-20.7731
-18.0812
-15.3545
-12.5969
-9.81214
-7.00297
-4.17239
-1.32205
1.54566
4.42996
7.32883
10.2423
13.1684
16.108
19.0591
22.0231
24.9981
27.986
30.9845
33.9964
37.0189
40.0553
43.1023
46.164
49.2362
52.3234
55.4211
58.5339
61.6568
64.7946
67.9419
71.1032
74.2735
77.4558
80.6463
83.8456
87.052
90.262
93.4775
96.6897
99.904
103.108
106.305
109.492
112.646
115.812
118.886
122.026
124.995
128.044
131.016
133.645
137.18
138.599
143.033
143.879
147.722
149.756
150.085
158.792
150.331
162.927
158.879
160.639
172.129
153.024
182.479
161.833
166.785
195.276
143.343
205.963
169.795
164.791
232.345
139.61
212.261
221.228
173.725
221.498
214.485
222.581
208.441
215.631
-38.4786
-39.1911
-40.0311
-40.9685
-41.9403
-42.9108
-43.8707
-44.8177
-45.7447
-46.6376
-47.4788
-48.2495
-48.9309
-49.5051
-49.9545
-50.2631
-50.4161
-50.4005
-50.2063
-49.8265
-49.2578
-48.4999
-47.5557
-46.4308
-45.1329
-43.6714
-42.0571
-40.3012
-38.4154
-36.4114
-34.3003
-32.0928
-29.799
-27.4281
-24.9886
-22.488
-19.9334
-17.3306
-14.6853
-12.0019
-9.28493
-6.53748
-3.76316
-0.96401
1.85703
4.69889
7.55906
10.4373
13.3314
16.2418
19.1664
22.1064
25.0594
28.0275
31.008
34.0037
37.0114
40.0346
43.0697
46.1207
49.1834
52.2623
55.3525
58.4589
61.5762
64.7091
67.8524
71.0102
74.1778
77.3579
80.5471
83.7453
86.9514
90.1614
93.3776
96.5908
99.8066
103.013
106.212
109.402
112.559
115.728
118.806
121.947
124.927
127.969
130.961
133.578
137.13
138.552
142.977
143.853
147.67
149.731
150.032
158.807
150.262
162.909
158.886
160.564
172.191
152.824
182.627
161.72
166.498
195.62
142.887
206.09
169.739
163.88
233.07
139.241
211.333
221.677
173.439
221.228
214.637
222.673
208.489
215.489
-36.208
-36.7996
-37.5089
-38.3077
-39.1369
-39.9632
-40.7794
-41.5855
-42.3775
-43.145
-43.874
-44.5494
-45.1561
-45.6789
-46.1028
-46.4134
-46.5965
-46.6394
-46.5307
-46.2613
-45.8248
-45.2174
-44.4381
-43.4882
-42.3717
-41.0945
-39.6639
-38.0887
-36.3783
-34.5426
-32.5918
-30.5356
-28.3838
-26.1453
-23.8288
-21.442
-18.9923
-16.486
-13.9293
-11.3271
-8.68442
-6.00484
-3.29255
-0.549989
2.21937
5.01414
7.8313
10.6704
13.5287
16.4066
19.3014
22.2143
25.1426
28.0882
31.0481
34.0252
37.0159
40.0238
43.0449
46.0834
49.1347
52.2033
55.2844
58.3825
61.4926
64.6191
67.7569
70.91
74.0737
77.2503
80.437
83.6331
86.8381
90.0473
93.2635
96.4771
99.6939
102.902
106.103
109.296
112.456
115.628
118.713
121.853
124.847
127.878
130.898
133.498
137.068
138.502
142.905
143.828
147.602
149.709
149.976
158.804
150.209
162.85
158.904
160.493
172.24
152.632
182.765
161.624
166.219
195.955
142.445
206.225
169.764
162.944
233.742
139.003
210.489
222.068
173.185
220.975
214.766
222.776
208.572
215.356
-33.901
-34.3905
-34.9887
-35.6693
-36.3767
-37.0799
-37.773
-38.4578
-39.1322
-39.7886
-40.4159
-41.0019
-41.5345
-42.0012
-42.3893
-42.6862
-42.8793
-42.9565
-42.9063
-42.719
-42.3862
-41.9019
-41.262
-40.4648
-39.5108
-38.4024
-37.1441
-35.7415
-34.2018
-32.5327
-30.7428
-28.8405
-26.8349
-24.7342
-22.5469
-20.2807
-17.9431
-15.5405
-13.0796
-10.5656
-8.00398
-5.39879
-2.75471
-0.0745519
2.63766
5.38026
8.14965
10.9452
13.7636
16.6052
19.4667
22.3493
25.2498
28.1702
31.1069
34.0629
37.0343
40.0246
43.0296
46.0535
49.0914
52.148
55.2181
58.3063
61.4075
64.526
67.6568
70.8034
73.9618
77.1336
80.3165
83.5092
86.712
89.9191
93.1346
96.3476
99.5648
102.774
105.976
109.171
112.335
115.509
118.602
121.738
124.753
127.767
130.823
133.401
136.992
138.446
142.812
143.806
147.514
149.693
149.915
158.773
150.183
162.778
158.938
160.42
172.269
152.464
182.886
161.562
165.956
196.26
142.039
206.358
169.886
162.011
234.326
138.943
209.745
222.363
172.983
220.733
214.861
222.889
208.718
215.249
-31.5615
-31.9648
-32.4682
-33.0475
-33.6503
-34.248
-34.8356
-35.4157
-35.9879
-36.5464
-37.0825
-37.5864
-38.0481
-38.4576
-38.8043
-39.0775
-39.2661
-39.3591
-39.3461
-39.2169
-38.9627
-38.576
-38.051
-37.3836
-36.5715
-35.6145
-34.514
-33.273
-31.896
-30.3885
-28.7571
-27.0089
-25.1514
-23.1921
-21.1388
-18.9988
-16.7795
-14.4874
-12.1291
-9.71021
-7.23654
-4.71241
-2.14299
0.468627
3.11786
5.80278
8.51925
11.2664
14.0405
16.8415
19.6659
22.5146
25.384
28.276
31.1867
34.119
37.0685
40.0389
43.0256
46.0328
49.0554
52.098
55.1553
58.2319
61.3225
64.4313
67.5535
70.6921
73.8436
77.0091
80.1868
83.3746
86.5738
89.7776
92.991
96.2023
99.4189
102.628
105.831
109.028
112.195
115.369
118.473
121.602
124.642
127.633
130.733
133.284
136.896
138.384
142.694
143.786
147.4
149.685
149.847
158.704
150.197
162.669
158.994
160.351
172.266
152.337
182.981
161.558
165.714
196.501
141.707
206.465
170.116
161.088
234.76
139.106
209.089
222.527
172.835
220.492
214.913
223.006
208.948
215.192
-29.1933
-29.5233
-29.9456
-30.4378
-30.9507
-31.4577
-31.9544
-32.4441
-32.9274
-33.4
-33.8549
-34.2842
-34.6798
-35.0335
-35.3366
-35.58
-35.7544
-35.8501
-35.8575
-35.7672
-35.5703
-35.2589
-34.8261
-34.2664
-33.5755
-32.751
-31.7919
-30.6987
-29.4737
-28.1199
-26.6419
-25.0449
-23.3351
-21.5185
-19.6022
-17.5926
-15.4967
-13.3207
-11.0714
-8.75414
-6.37506
-3.9386
-1.45035
1.08638
3.66654
6.28796
8.946
11.6396
14.3644
17.1204
19.9033
22.7142
25.5488
28.409
31.2905
34.196
37.121
40.069
43.0351
46.0232
49.0285
52.0551
55.0979
58.1609
61.2394
64.3366
67.4487
70.5777
73.7209
76.8783
80.0495
83.2308
86.4251
89.624
92.8342
96.0422
99.2573
102.464
105.669
108.864
112.036
115.206
118.325
121.44
124.512
127.474
130.624
133.146
136.776
138.315
142.544
143.771
147.251
149.683
149.766
158.586
150.267
162.515
159.082
160.258
172.222
152.277
182.952
161.633
165.492
196.638
141.491
206.512
170.449
160.18
234.986
139.534
208.485
222.528
172.775
220.246
214.919
223.123
209.287
215.215
-26.7994
-27.0673
-27.42
-27.8368
-28.2721
-28.7007
-29.1191
-29.5306
-29.9367
-30.3341
-30.7172
-31.0794
-31.4142
-31.7149
-31.9744
-32.1852
-32.3393
-32.4284
-32.4439
-32.3774
-32.2206
-31.9654
-31.6048
-31.1322
-30.5425
-29.8316
-28.9966
-28.036
-26.9499
-25.7394
-24.407
-22.9559
-21.3905
-19.7157
-17.9371
-16.0602
-14.0914
-12.0362
-9.9011
-7.69128
-5.41294
-3.07051
-0.669815
1.78568
4.29058
6.84247
9.43632
12.0708
14.7412
17.4471
20.1841
22.9527
25.7486
28.5732
31.422
34.2975
37.1951
40.1176
43.0606
46.0272
49.0131
52.0213
55.0478
58.0952
61.16
64.2439
67.3444
70.4619
73.5955
76.7431
79.9065
83.0796
86.2679
89.4601
92.6661
95.8688
99.0818
102.285
105.49
108.681
111.86
115.021
118.158
121.254
124.363
127.289
130.494
132.988
136.628
138.24
142.358
143.76
147.06
149.687
149.671
158.412
150.411
162.297
159.215
160.163
172.12
152.317
182.857
161.81
165.277
196.618
141.502
206.452
170.872
159.276
234.933
140.278
207.888
222.342
172.84
219.989
214.879
223.234
209.764
215.351
-24.3827
-24.5977
-24.8905
-25.2422
-25.6102
-25.971
-26.3216
-26.6654
-27.0043
-27.3359
-27.6556
-27.958
-28.2376
-28.4891
-28.7066
-28.8838
-29.0142
-29.0905
-29.1054
-29.0514
-28.9209
-28.7063
-28.4007
-27.9974
-27.4904
-26.8748
-26.1465
-25.3025
-24.3411
-23.2616
-22.0646
-20.7516
-19.3252
-17.7887
-16.1463
-14.4024
-12.5624
-10.631
-8.61416
-6.51665
-4.34444
-2.10186
0.205263
2.57335
4.99686
7.47312
9.99691
12.5665
15.177
17.8276
20.5137
23.2354
25.9882
28.7729
31.5855
34.4272
37.2941
40.188
43.1052
46.0475
49.0116
51.9991
55.0073
58.0369
61.0863
64.1548
67.2424
70.3465
73.4694
76.6053
79.7599
82.9228
86.1044
89.2878
92.4891
95.6841
98.895
102.091
105.298
108.48
111.668
114.815
117.974
121.043
124.195
127.082
130.341
132.813
136.449
138.16
142.132
143.753
146.821
149.69
149.561
158.176
150.645
161.998
159.403
160.02
171.952
152.495
182.611
162.117
165.046
196.393
141.766
206.22
171.377
158.373
234.533
141.415
207.274
221.954
173.083
219.717
214.799
223.333
210.406
215.636
-21.9458
-22.1157
-22.357
-22.6521
-22.9615
-23.2636
-23.5554
-23.8405
-24.1209
-24.395
-24.6589
-24.908
-25.138
-25.3443
-25.5222
-25.6665
-25.7716
-25.8315
-25.8399
-25.7901
-25.6754
-25.489
-25.2242
-24.8746
-24.434
-23.897
-23.2589
-22.5155
-21.6639
-20.7019
-19.6287
-18.4439
-17.1488
-15.7449
-14.235
-12.6223
-10.9108
-9.10452
-7.20843
-5.22678
-3.16504
-1.02732
1.18083
3.45574
5.79203
8.18664
10.6345
13.1333
15.6784
18.2682
20.8983
23.5679
26.273
29.0134
31.7856
34.5894
37.4223
40.2839
43.1724
46.0871
49.027
51.9909
54.9788
57.9881
61.0205
64.0714
67.1448
70.2334
73.3443
76.4665
79.6116
82.7622
85.9365
89.1089
92.3055
95.4901
98.6993
101.884
105.095
108.264
111.463
114.591
117.775
120.813
124.009
126.859
130.162
132.626
136.238
138.077
141.861
143.745
146.534
149.687
149.446
157.878
150.982
161.603
159.653
159.831
171.716
152.858
182.164
162.583
164.774
195.923
142.364
205.731
171.985
157.507
233.72
143.049
206.646
221.367
173.575
219.434
214.688
223.418
211.237
216.105
-19.4911
-19.6227
-19.8194
-20.0652
-20.3237
-20.5746
-20.8153
-21.0494
-21.2789
-21.5027
-21.7175
-21.9195
-22.105
-22.2704
-22.4116
-22.5244
-22.6041
-22.6457
-22.6436
-22.5923
-22.4857
-22.3177
-22.0824
-21.7736
-21.3854
-20.9122
-20.3489
-19.6909
-18.9344
-18.0761
-17.1139
-16.0463
-14.873
-13.594
-12.2109
-10.7254
-9.14022
-7.45837
-5.68377
-3.82003
-1.87176
0.157152
2.26183
4.43843
6.68214
8.9894
11.3557
13.7779
16.252
18.7752
21.3441
23.9562
26.6089
29.2999
32.0275
34.7891
37.5841
40.4095
43.266
46.1496
49.0627
51.9998
54.9651
57.9513
60.9649
63.9957
67.0534
70.1243
73.222
76.3284
79.463
82.5993
85.7658
88.9249
92.1167
95.2883
98.4966
101.668
104.883
108.035
111.248
114.352
117.563
120.57
123.804
126.627
129.957
132.436
135.992
137.992
141.545
143.727
146.212
149.672
149.342
157.527
151.424
161.097
159.96
159.583
171.43
153.458
181.467
163.238
164.457
195.214
143.419
204.884
172.768
156.801
232.436
145.311
206.019
220.607
174.405
219.144
214.566
223.492
212.275
216.783
-17.0209
-17.1197
-17.2779
-17.4808
-17.6947
-17.9011
-18.0974
-18.287
-18.4722
-18.6519
-18.8236
-18.984
-19.13
-19.2584
-19.366
-19.4493
-19.5044
-19.5269
-19.5121
-19.4553
-19.3512
-19.1945
-18.9797
-18.7013
-18.3536
-17.9314
-17.4295
-16.8429
-16.1675
-15.3993
-14.5353
-13.573
-12.5108
-11.3477
-10.0837
-8.71947
-7.25641