/*--------------------------------*- C++ -*----------------------------------*\
| =========                 |                                                 |
| \\      /  F ield         | OpenFOAM: The Open Source CFD Toolbox           |
|  \\    /   O peration     | Version:  2412                                  |
|   \\  /    A nd           | Website:  www.openfoam.com                      |
|    \\/     M anipulation  |                                                 |
\*---------------------------------------------------------------------------*/
FoamFile
{
    version     2.0;
    format      ascii;
    arch        "LSB;label=32;scalar=64";
    class       volVectorField;
    location    "0.095";
    object      ddt0(U);
}
// * * * * * * * * * * * * * * * * * * * * * * * * * * * * * * * * * * * * * //

dimensions      [0 1 -2 0 0 0 0];

internalField   nonuniform List<vector> 
12600
(
(170.065 0 42.4479)
(10.2392 1.29813e-18 12.5641)
(-28.3552 1.35968e-18 10.9807)
(-39.3386 0 13.7291)
(-43.23 -3.89524e-20 16.1656)
(-43.0478 0 19.0517)
(-42.0464 -2.45608e-18 20.1772)
(-41.0776 0 20.4889)
(-40.0854 0 20.4966)
(-39.0794 0 20.3421)
(-38.0661 0 20.0822)
(-37.0568 -5.59218e-18 19.7535)
(-36.0626 -5.61352e-18 19.3817)
(-35.084 0 18.9816)
(-34.1233 1.11618e-17 18.5638)
(-33.1805 0 18.1345)
(-32.2542 1.94137e-20 17.6982)
(-31.3454 0 17.2576)
(-30.451 5.35462e-18 16.8146)
(-29.5713 0 16.3706)
(-28.7032 0 15.9264)
(-27.8466 0 15.483)
(-27.0004 2.01794e-17 15.0406)
(-26.1655 -1.9733e-17 14.5999)
(-25.3443 -2.29525e-20 14.1613)
(-24.5342 9.42095e-18 13.7262)
(-23.7373 0 13.295)
(-22.9527 0 12.8687)
(-22.1802 0 12.4478)
(-21.4214 -1.69921e-17 12.0326)
(-20.6774 -3.29865e-17 11.6235)
(-19.9416 0 11.2176)
(-19.3066 0 10.6772)
(-18.6109 -1.51473e-17 10.2838)
(-17.9206 -1.47054e-17 9.9031)
(-17.2447 0 9.53095)
(-16.5858 0 9.16741)
(-15.9456 -2.68316e-17 8.81366)
(-15.324 0 8.47053)
(-14.7199 3.18367e-20 8.13788)
(-14.1365 -2.43304e-17 7.81654)
(-13.5742 -2.35099e-17 7.50716)
(-13.0321 0 7.20959)
(-12.5123 -2.17641e-17 6.92604)
(-12.0147 -2.08021e-17 6.65618)
(-11.5307 3.96873e-17 6.39825)
(-11.0618 -3.76503e-17 6.1517)
(-10.6105 0 5.91928)
(-10.1809 3.29414e-17 5.70739)
(-9.78128 -3.01393e-17 5.52077)
(-9.3847 0 5.3675)
(-8.97432 -5.32848e-19 5.26527)
(-8.63552 1.81518e-17 5.18285)
(-8.54141 0 5.55569)
(4.0551 3.03024e-17 11.0553)
(-51.876 0 -28.8119)
(65.4152 0 97.4161)
(84.4444 -7.27517e-17 40.9569)
(-59.3534 -4.89235e-16 -82.6933)
(-79.1022 -1.27662e-15 -61.715)
(-41.5308 2.78255e-16 -21.6485)
(-18.3148 -7.74736e-17 -3.48528)
(-10.1639 0 1.46049)
(-7.75261 3.60551e-17 2.90333)
(-6.91852 6.07029e-17 3.27818)
(-6.57747 -1.42709e-16 3.36663)
(-6.39077 7.636e-17 3.37533)
(-6.26549 0 3.35954)
(-6.17185 0 3.33676)
(-6.0987 0 3.31334)
(-6.04069 0 3.29234)
(-5.99561 0 3.27497)
(-5.96225 -1.45065e-16 3.26208)
(-5.94036 1.40584e-16 3.2542)
(-5.92993 0 3.25204)
(-5.93139 0 3.25577)
(-5.94513 1.26763e-16 3.26614)
(-5.97316 -1.64877e-21 3.28461)
(-6.01618 2.3535e-16 3.31135)
(-6.07324 0 3.34619)
(-6.14947 0 3.39193)
(-6.23176 0 3.48728)
(-6.35861 -1.67987e-20 3.55997)
(-6.49995 0 3.64101)
(-6.66391 0 3.73595)
(-6.8849 1.77115e-16 3.86474)
(-7.18072 -2.06435e-20 4.03497)
(-7.51086 0 4.22125)
(-7.79914 0 4.38079)
(-7.99506 -2.96706e-16 4.48696)
(-8.10394 -2.83651e-16 4.545)
(-8.169 -2.71009e-16 4.58)
(-8.23145 -2.58783e-16 4.61441)
(-8.30859 -3.60056e-20 4.65717)
(-8.3975 -3.40383e-20 4.70631)
(-8.49067 2.24644e-16 4.75745)
(-8.58269 0 4.80784)
(-8.67293 0 4.85713)
(-8.76199 0 4.90565)
(-8.85106 7.40906e-16 4.9541)
(-8.94043 -3.52653e-16 5.00279)
(-9.03174 3.35622e-16 5.05247)
(-9.12504 3.19303e-16 5.10353)
(-9.2243 0 5.15775)
(-9.32611 0 5.21375)
(-9.43893 0 5.27569)
(-9.54879 5.21214e-16 5.33639)
(-9.67744 0 5.40735)
(-9.79067 -4.69335e-16 5.46996)
(-9.93494 0 5.54998)
(-10.0498 0 5.61324)
(-10.1985 3.99569e-16 5.69638)
(-10.3295 0 5.76848)
(-10.4391 0 5.83025)
(-10.6257 0 5.93408)
(-10.6181 -6.40553e-16 5.92952)
(-10.8408 0 6.05568)
(-10.6386 5.71783e-16 5.94136)
(-10.493 0 5.86246)
(-8.49599 2.35968e-20 4.78126)
(213.778 -5.45411e-19 97.6976)
(80.6347 -9.40937e-19 49.3783)
(-9.37405 5.71026e-20 35.6279)
(-62.7416 0 38.3053)
(-90.2621 -2.15897e-18 45.5106)
(-102.031 2.31154e-18 53.7711)
(-108.037 2.56089e-18 58.4278)
(-110.639 -2.61575e-18 60.6118)
(-111.388 0 61.5142)
(-111.08 0 61.6951)
(-110.082 0 61.4166)
(-108.624 0 60.8239)
(-106.859 0 60.0148)
(-104.883 0 59.0517)
(-102.761 -4.26378e-20 57.9792)
(-100.538 0 56.8271)
(-98.2417 5.70622e-18 55.6166)
(-95.8964 0 54.3629)
(-93.5147 -1.1118e-17 53.0764)
(-91.1085 1.0951e-17 51.7657)
(-88.6839 0 50.4366)
(-86.2478 1.06225e-17 49.0943)
(-83.8057 -1.04697e-17 47.7426)
(-81.364 1.02329e-17 46.386)
(-78.9303 -9.99617e-18 45.0283)
(-76.5073 0 43.6729)
(-74.1007 9.48062e-18 42.3233)
(-71.7134 0 40.9826)
(-69.3492 0 39.6531)
(-67.0128 0 38.3365)
(-64.7088 1.70406e-17 37.0355)
(-62.4498 0 35.7537)
(-60.2796 0 34.3652)
(-58.0612 0 33.1145)
(-55.8958 0 31.8925)
(-53.7731 0 30.6951)
(-51.6974 0 29.523)
(-49.6743 2.76049e-17 28.3806)
(-47.7064 0 27.2694)
(-45.7924 5.16407e-17 26.1899)
(-43.9408 4.98715e-17 25.1458)
(-42.1533 2.40037e-17 24.1387)
(-40.4304 0 23.1689)
(-38.7789 0 22.2426)
(-37.1986 4.24436e-17 21.3588)
(-35.6715 -4.05219e-17 20.5111)
(-34.2024 3.80459e-17 19.7015)
(-32.794 0 18.9364)
(-31.4505 -3.2972e-17 18.2269)
(-30.1852 0 17.5837)
(-28.9396 0 17.0132)
(-27.7208 -2.27992e-17 16.5834)
(-26.4987 0 16.2927)
(-24.6932 0 17.1091)
(-12.6891 -3.06155e-17 27.0719)
(-82.0503 0 -57.0151)
(135.951 0 244.942)
(62.0085 -4.27277e-16 64.7511)
(-163.562 -4.29895e-15 -213.709)
(-138.96 3.97481e-16 -140.673)
(-68.9316 0 -44.5126)
(-34.9709 8.34595e-17 -3.61676)
(-24.5005 8.39091e-19 6.89224)
(-21.1194 0 9.9745)
(-19.8805 -1.23055e-16 10.6431)
(-19.2639 -1.01481e-18 10.7294)
(-18.8526 0 10.6667)
(-18.535 7.8263e-17 10.5653)
(-18.2746 0 10.4589)
(-18.0576 0 10.3592)
(-17.8772 0 10.2717)
(-17.7308 0 10.1986)
(-17.6173 2.85722e-16 10.1415)
(-17.5374 -1.38255e-16 10.1018)
(-17.4925 0 10.0813)
(-17.484 0 10.0806)
(-17.515 1.24069e-16 10.1024)
(-17.5923 -6.40577e-21 10.151)
(-17.7179 -9.34624e-21 10.227)
(-17.892 0 10.331)
(-18.1297 0 10.4728)
(-18.4418 0 10.687)
(-18.846 -2.69573e-20 10.9223)
(-19.3033 -1.86736e-16 11.1882)
(-19.8527 1.78762e-16 11.5088)
(-20.5942 -1.71129e-16 11.9434)
(-21.5496 -3.05225e-20 12.5005)
(-22.5645 -1.56235e-16 13.0864)
(-23.4064 0 13.5666)
(-23.946 2.85185e-16 13.8704)
(-24.2255 0 14.0268)
(-24.3854 2.59848e-16 14.1184)
(-24.544 0 14.2119)
(-24.7454 -4.72345e-16 14.3307)
(-24.9764 -2.25066e-16 14.4663)
(-25.2147 0 14.6055)
(-25.4446 0 14.74)
(-25.666 -3.8873e-16 14.8696)
(-25.8792 3.69911e-16 14.9947)
(-26.0902 -7.04199e-16 15.1185)
(-26.2989 3.34926e-16 15.2415)
(-26.514 -3.18465e-16 15.3678)
(-26.7336 0 15.4975)
(-26.9732 2.87592e-16 15.6381)
(-27.2182 0 15.7828)
(-27.4985 0 15.947)
(-27.7665 -4.92442e-16 16.1053)
(-28.0939 0 16.2968)
(-28.371 8.17949e-20 16.4601)
(-28.7466 4.1965e-16 16.6798)
(-29.029 0 16.8453)
(-29.4217 0 17.0756)
(-29.76 0 17.272)
(-30.0386 3.36883e-16 17.4368)
(-30.5725 -6.37064e-16 17.7445)
(-30.5019 6.02175e-16 17.7046)
(-31.2172 0 18.1153)
(-30.6605 -5.37046e-16 17.7783)
(-30.5605 0 17.6747)
(-26.2278 9.53334e-16 15.0709)
(223.589 1.23971e-18 152.153)
(136.637 -7.26073e-19 96.2928)
(46.722 -2.93253e-18 65.9315)
(-29.5829 0 57.7703)
(-84.4924 -1.94256e-18 61.9029)
(-119.829 -5.42601e-20 70.6556)
(-141.563 0 79.3232)
(-154.315 2.482e-18 85.4598)
(-161.718 0 89.2224)
(-165.808 2.61005e-18 91.3609)
(-167.687 0 92.4193)
(-168.037 0 92.7135)
(-167.31 0 92.4483)
(-165.805 0 91.7626)
(-163.73 -5.46586e-18 90.7564)
(-161.228 0 89.5041)
(-158.403 0 88.0589)
(-155.329 0 86.4626)
(-152.062 5.26256e-18 84.7446)
(-148.644 -3.58789e-20 82.9295)
(-145.104 0 81.0354)
(-141.468 -3.33254e-20 79.0779)
(-137.758 0 77.0703)
(-133.993 -9.63594e-18 75.0242)
(-130.191 0 72.9514)
(-126.365 0 70.8594)
(-122.53 -8.99159e-18 68.7564)
(-118.696 0 66.6498)
(-114.873 0 64.5453)
(-111.073 -1.65408e-17 62.4482)
(-107.303 0 60.3646)
(-103.563 0 58.3054)
(-99.8399 0 56.3083)
(-96.1967 0 54.2834)
(-92.6097 1.42862e-17 52.2906)
(-89.0841 0 50.3314)
(-85.6281 0 48.4082)
(-82.2511 -2.60407e-17 46.5289)
(-78.96 0 44.6954)
(-75.7549 -4.88035e-17 42.9097)
(-72.6492 -4.34935e-20 41.1793)
(-69.6463 -2.27244e-17 39.5066)
(-66.7493 0 37.8928)
(-63.969 0 36.3473)
(-61.3055 -2.00433e-17 34.8672)
(-58.737 0 33.4431)
(-56.2742 -3.59886e-17 32.0828)
(-53.9187 0 30.7937)
(-51.6703 2.50927e-19 29.5811)
(-49.5491 0 28.4566)
(-47.4789 0 27.4069)
(-45.4988 0 26.5183)
(-43.4629 -1.30305e-17 25.8498)
(-40.448 0 26.3747)
(-34.943 0 31.7682)
(-77.46 0 -37.3395)
(138.026 0 272.857)
(-21.6841 -7.77509e-15 -1.35924)
(-221.049 0 -265.144)
(-142.541 3.69556e-16 -133.445)
(-72.0629 0 -32.3457)
(-43.4733 -4.12628e-17 6.3282)
(-35.5384 -7.91158e-19 14.8875)
(-32.7006 0 17.1332)
(-31.4638 1.19464e-16 17.4278)
(-30.6847 6.80981e-17 17.3015)
(-30.0858 0 17.0842)
(-29.5877 -7.37038e-17 16.857)
(-29.1622 0 16.6437)
(-28.7976 0 16.4522)
(-28.4885 0 16.2861)
(-28.2329 0 16.1469)
(-28.0303 3.99466e-21 16.0361)
(-27.8829 1.30017e-16 15.9556)
(-27.7938 0 15.9081)
(-27.7654 0 15.8949)
(-27.8047 -1.7255e-20 15.9208)
(-27.9233 -2.24316e-16 15.9925)
(-28.1242 -1.07856e-16 16.1113)
(-28.4112 0 16.28)
(-28.8128 0 16.5159)
(-29.3688 0 16.8257)
(-30.0502 -3.6566e-16 17.2233)
(-30.8346 3.27004e-20 17.6801)
(-31.7949 -1.67692e-16 18.2454)
(-33.0839 0 19.0072)
(-34.7021 -1.53327e-16 19.9506)
(-36.3704 1.46469e-16 20.9004)
(-37.7138 0 21.6433)
(-38.5486 0 22.0895)
(-38.9668 2.54985e-16 22.3071)
(-39.203 0 22.4345)
(-39.4418 2.31989e-16 22.572)
(-39.7473 4.41911e-20 22.7491)
(-40.0948 2.10639e-16 22.9484)
(-40.4496 -2.0061e-16 23.1497)
(-40.7866 0 23.3402)
(-41.1069 3.63788e-16 23.5209)
(-41.4092 -3.46125e-16 23.6917)
(-41.7064 6.58696e-16 23.8593)
(-41.9962 0 24.0236)
(-42.2986 -2.9775e-16 24.1945)
(-42.6061 0 24.3701)
(-42.9504 -2.68918e-16 24.5655)
(-43.2999 2.55314e-16 24.766)
(-43.7115 0 25)
(-44.098 4.60309e-16 25.222)
(-44.5866 0 25.5001)
(-44.9877 8.27708e-16 25.7299)
(-45.5553 -3.92148e-16 26.054)
(-45.9674 0 26.2883)
(-46.5629 0 26.6312)
(-47.077 0 26.9197)
(-47.4826 -4.79946e-20 27.1575)
(-48.3467 5.95064e-16 27.6428)
(-48.1845 -5.62261e-16 27.5511)
(-49.4105 0 28.246)
(-48.5586 -5.01393e-16 27.7279)
(-48.7393 0 27.7488)
(-43.0729 -2.51414e-20 24.4869)
(213.789 -6.84281e-19 182.723)
(167.308 -1.402e-19 136.839)
(103.237 1.45287e-18 100.778)
(30.988 -1.6993e-18 81.5506)
(-36.9395 -1.85387e-18 76.0008)
(-92.1621 -4.03125e-18 79.0147)
(-132.953 0 87.3087)
(-161.627 0 96.561)
(-181.267 0 104.073)
(-194.495 -2.47181e-18 109.465)
(-203.17 0 113.121)
(-208.558 0 115.446)
(-211.534 0 116.749)
(-212.709 0 117.247)
(-212.522 0 117.106)
(-211.288 -5.09091e-18 116.452)
(-209.238 5.04737e-18 115.384)
(-206.547 0 113.981)
(-203.342 0 112.301)
(-199.724 -9.80605e-18 110.395)
(-195.77 9.63654e-18 108.301)
(-191.542 -9.51145e-18 106.05)
(-187.091 9.30077e-18 103.671)
(-182.461 9.12309e-18 101.188)
(-177.691 -8.88399e-18 98.6236)
(-172.812 8.67332e-18 95.9934)
(-167.853 0 93.3126)
(-162.837 -8.25232e-18 90.5958)
(-157.787 0 87.8551)
(-152.723 1.56534e-17 85.1005)
(-147.662 0 82.3431)
(-142.615 0 79.5935)
(-137.606 0 76.8412)
(-132.638 -1.38992e-17 74.1114)
(-127.726 -1.3513e-17 71.416)
(-122.88 0 68.7559)
(-118.114 0 66.1363)
(-113.442 2.46229e-17 63.5686)
(-108.877 0 61.0556)
(-104.421 3.81395e-20 58.6021)
(-100.093 -2.22488e-17 56.2195)
(-95.9 0 53.9106)
(-91.8483 0 51.6785)
(-87.9514 0 49.5353)
(-84.2113 0 47.4751)
(-80.6062 -3.58382e-17 45.4883)
(-77.1546 0 43.589)
(-73.858 3.15499e-17 41.7844)
(-70.7094 2.91974e-17 40.0741)
(-67.7392 0 38.4702)
(-64.8611 0 36.9439)
(-62.1503 0 35.5596)
(-59.4149 1.22934e-17 34.341)
(-55.9415 9.73659e-19 33.8865)
(-55.7498 3.86455e-17 33.3644)
(-57.7876 0 8.41274)
(49.0654 9.77248e-16 151.26)
(-117.379 5.08879e-15 -92.2149)
(-190.696 0 -178.365)
(-107.886 6.51109e-16 -66.3133)
(-64.078 0 -1.48796)
(-49.2473 3.3581e-17 19.3426)
(-45.0293 -1.15875e-17 23.1326)
(-43.0232 0 23.7222)
(-41.7828 -5.69482e-17 23.5235)
(-40.8304 -6.51178e-17 23.1672)
(-40.0339 0 22.7961)
(-39.3454 0 22.447)
(-38.745 0 22.1307)
(-38.2233 6.83728e-17 21.8508)
(-37.7756 6.6894e-17 21.6089)
(-37.4009 0 21.4062)
(-37.0993 -1.26296e-16 21.2437)
(-36.8744 -1.22121e-16 21.1247)
(-36.7313 0 21.0524)
(-36.6738 0 21.029)
(-36.7128 -1.09454e-16 21.062)
(-36.8647 2.55584e-20 21.1606)
(-37.1341 0 21.3266)
(-37.5298 0 21.5664)
(-38.092 0 21.9072)
(-38.8623 0 22.375)
(-39.8259 4.43642e-20 22.9425)
(-40.9499 1.64247e-16 23.6031)
(-42.3456 0 24.4338)
(-44.2029 0 25.5416)
(-46.4783 0 26.8736)
(-48.7643 1.37169e-16 28.17)
(-50.5618 0 29.1498)
(-51.6549 2.50141e-16 29.7188)
(-52.1933 -2.3878e-16 29.99)
(-52.4988 2.27757e-16 30.1542)
(-52.8111 -2.17176e-16 30.338)
(-53.2089 4.13839e-16 30.5734)
(-53.6558 -1.9713e-16 30.8338)
(-54.1079 1.87717e-16 31.0935)
(-54.5303 0 31.3354)
(-54.9271 0 31.5623)
(-55.2924 -3.23614e-16 31.7724)
(-55.6486 -3.07988e-16 31.9771)
(-55.9886 -2.92795e-16 32.1745)
(-56.3481 6.24165e-20 32.3823)
(-56.7096 0 32.5945)
(-57.1268 0 32.8365)
(-57.5435 -2.38642e-16 33.0821)
(-58.0513 0 33.3762)
(-58.5142 -4.30003e-16 33.649)
(-59.1237 0 34.0013)
(-59.6023 -8.00036e-20 34.2823)
(-60.3138 0 34.6947)
(-60.8064 -3.46842e-16 34.9801)
(-61.5445 3.28298e-16 35.4129)
(-62.1859 3.10684e-16 35.7748)
(-62.6442 -5.61298e-20 36.0549)
(-63.7921 0 36.6969)
(-63.4663 5.25079e-16 36.5194)
(-65.1625 4.95898e-16 37.4774)
(-64.001 4.68182e-16 36.7538)
(-64.5931 0 36.932)
(-58.2341 -2.82122e-20 33.1506)
(196.909 0 199.684)
(174.301 -1.23934e-19 165.977)
(137.626 0 131.994)
(85.133 1.60731e-18 106.488)
(24.3161 3.49314e-18 92.4017)
(-35.3416 1.89662e-18 87.8349)
(-87.8218 0 90.4272)
(-130.942 0 97.8778)
(-164.85 -2.20948e-18 106.971)
(-190.635 -2.28164e-18 115.265)
(-209.806 2.33545e-18 121.967)
(-223.758 4.74826e-18 127.074)
(-233.623 4.78854e-18 130.799)
(-240.287 0 133.354)
(-244.432 0 134.921)
(-246.58 9.59722e-18 135.657)
(-247.133 -2.43955e-20 135.693)
(-246.403 0 135.141)
(-244.628 -4.65471e-18 134.094)
(-241.997 -9.19817e-18 132.63)
(-238.66 -9.10883e-18 130.813)
(-234.739 0 128.696)
(-230.331 -8.79069e-18 126.329)
(-225.522 8.56324e-18 123.752)
(-220.383 8.39588e-18 121.001)
(-214.976 -2.47181e-20 118.107)
(-209.352 0 115.094)
(-203.557 2.12796e-20 111.986)
(-197.631 0 108.805)
(-191.611 1.47115e-17 105.568)
(-185.528 0 102.293)
(-179.407 0 98.9954)
(-173.274 0 95.6819)
(-167.153 1.31267e-17 92.3685)
(-161.064 0 89.0739)
(-155.027 0 85.8051)
(-149.061 0 82.5712)
(-143.187 0 79.3883)
(-137.424 -2.24285e-17 76.2607)
(-131.782 4.33975e-17 73.1972)
(-126.285 0 70.2131)
(-120.943 2.0159e-17 67.3124)
(-115.768 0 64.5011)
(-110.778 0 61.7942)
(-105.977 0 59.1831)
(-101.345 5.7837e-20 56.6605)
(-96.9096 0 54.2465)
(-92.672 -2.97471e-17 51.9486)
(-88.6201 0 49.7632)
(-84.7962 0 47.7029)
(-81.1042 -2.12466e-17 45.7339)
(-77.6403 0 43.9129)
(-74.2147 0 42.211)
(-70.4906 4.71663e-19 40.8295)
(-70.8878 -3.63986e-17 37.763)
(-53.803 0 42.7332)
(-38.8228 1.71758e-16 42.6016)
(-169.722 -2.33763e-15 -142.913)
(-136.085 0 -67.5723)
(-80.2323 -2.01099e-16 -2.6879)
(-61.6271 0 22.3999)
(-56.75 -3.15908e-17 28.506)
(-54.2259 1.08988e-17 29.4667)
(-52.396 0 29.2467)
(-50.9905 5.48361e-17 28.7591)
(-49.8205 -2.40363e-19 28.2298)
(-48.8097 0 27.7242)
(-47.9226 0 27.2602)
(-47.1419 0 26.8432)
(-46.4589 -1.28461e-16 26.4748)
(-45.8693 -3.91638e-21 26.1557)
(-45.3723 0 25.8876)
(-44.9686 1.18535e-16 25.6712)
(-44.6636 2.29239e-16 25.5112)
(-44.4641 0 25.4116)
(-44.3753 0 25.3756)
(-44.4129 0 25.4138)
(-44.5974 2.60843e-20 25.5375)
(-44.9355 0 25.7495)
(-45.4423 0 26.061)
(-46.1718 0 26.5054)
(-47.175 0 27.1088)
(-48.4252 1.60627e-16 27.8506)
(-49.9008 1.53823e-16 28.7246)
(-51.7496 0 29.836)
(-54.1847 0 31.2998)
(-57.1066 0 33.0113)
(-59.9841 -3.28207e-20 34.6263)
(-62.2117 0 35.8104)
(-63.5539 -2.34167e-16 36.4794)
(-64.2172 0 36.7955)
(-64.6013 -2.1315e-16 36.9955)
(-64.9923 0 37.2247)
(-65.4824 -1.93573e-16 37.514)
(-66.0247 0 37.8274)
(-66.5688 0 38.1358)
(-67.0696 0 38.4178)
(-67.535 0 38.6788)
(-67.9508 3.02592e-16 38.9133)
(-68.3513 0 39.1387)
(-68.7199 2.73716e-16 39.3491)
(-69.1145 2.60172e-16 39.5732)
(-69.5001 0 39.7971)
(-69.9613 0 40.0611)
(-70.4065 0 40.3215)
(-70.9734 0 40.6457)
(-71.4639 8.39113e-20 40.9327)
(-72.1465 0 41.3224)
(-72.6429 -7.22173e-16 41.6113)
(-73.4341 0 42.0653)
(-73.9381 6.47861e-16 42.3525)
(-74.7294 -3.06621e-16 42.8153)
(-75.4215 -2.90152e-16 43.1952)
(-75.8133 -2.74389e-16 43.4436)
(-77.1518 0 44.1766)
(-76.5305 0 43.8352)
(-78.5732 -9.25962e-16 44.98)
(-76.9666 4.36977e-16 43.9785)
(-77.937 4.1199e-16 44.3182)
(-70.9079 -3.87814e-16 40.2294)
(181.247 0 212.346)
(167.132 1.82306e-18 185.966)
(148.392 0 157.125)
(117.108 0 130.753)
(73.5668 0 111.352)
(23.4009 0 100.003)
(-27.7251 0 95.704)
(-75.8388 1.9989e-18 97.2561)
(-118.67 2.08574e-18 103.385)
(-155.222 4.28556e-18 111.727)
(-185.357 -4.38668e-18 120.125)
(-209.579 -4.48186e-18 127.59)
(-228.63 -4.51982e-18 133.837)
(-243.28 0 138.856)
(-254.236 0 142.717)
(-262.112 -9.00511e-18 145.519)
(-267.428 -8.93798e-18 147.367)
(-270.614 0 148.371)
(-272.023 4.39307e-18 148.632)
(-271.946 8.68091e-18 148.246)
(-270.619 0 147.297)
(-268.239 8.39122e-18 145.859)
(-264.97 0 144.003)
(-260.951 -2.80171e-20 141.787)
(-256.302 -7.87107e-18 139.265)
(-251.124 -2.36313e-20 136.482)
(-245.505 0 133.477)
(-239.522 7.33621e-18 130.286)
(-233.242 -1.42417e-17 126.943)
(-226.726 -2.77173e-17 123.474)
(-220.026 -1.34415e-17 119.908)
(-213.184 0 116.267)
(-206.243 -1.26857e-17 112.568)
(-199.242 0 108.83)
(-192.216 0 105.079)
(-185.193 0 101.329)
(-178.205 0 97.5945)
(-171.281 0 93.8972)
(-164.452 3.64603e-20 90.2441)
(-157.731 -2.04348e-17 86.6493)
(-151.156 0 83.1328)
(-144.74 -3.79636e-17 79.7005)
(-138.503 0 76.3623)
(-132.468 0 73.1371)
(-126.643 0 70.0147)
(-121.013 3.17809e-17 66.9908)
(-115.611 0 64.0919)
(-110.442 0 61.3256)
(-105.492 0 58.6891)
(-100.815 0 56.1938)
(-96.3063 3.99414e-17 53.8049)
(-92.0765 0 51.5838)
(-87.9364 0 49.4629)
(-83.7448 -1.30682e-18 47.5477)
(-82.594 0 44.3549)
(-63.1766 0 53.7326)
(-70.7259 -1.95039e-15 33.6737)
(-173.949 5.31231e-16 -117.707)
(-113.068 0 -21.2863)
(-71.1497 0 28.0882)
(-67.035 0 33.2154)
(-65.0138 2.06042e-17 34.4437)
(-62.731 0 34.4806)
(-60.7374 0 33.9451)
(-59.0902 -1.03447e-16 33.2785)
(-57.6791 1.15635e-16 32.6088)
(-56.4436 0 31.9817)
(-55.3515 0 31.4097)
(-54.3861 0 30.8966)
(-53.5381 6.02873e-17 30.4433)
(-52.8032 -5.89533e-17 30.0505)
(-52.1809 -1.14659e-16 29.7197)
(-51.6723 -1.11199e-16 29.4524)
(-51.2844 -1.07496e-16 29.2543)
(-51.0257 1.037e-16 29.1304)
(-50.9033 0 29.0851)
(-50.937 0 29.1321)
(-51.1515 9.25149e-17 29.2847)
(-51.556 0 29.5469)
(-52.1721 0 29.9351)
(-53.0651 0 30.4928)
(-54.294 0 31.2448)
(-55.8293 0 32.1648)
(-57.6583 -2.88068e-16 33.2596)
(-59.9618 0 34.6605)
(-62.9638 -1.31773e-16 36.4809)
(-66.5044 0 38.5574)
(-69.9417 -3.44849e-20 40.4673)
(-72.5805 2.29395e-16 41.8356)
(-74.1725 0 42.5972)
(-74.9723 0 42.9614)
(-75.4459 0 43.2044)
(-75.9186 0 43.4839)
(-76.497 1.80947e-16 43.8287)
(-77.1256 0 44.1937)
(-77.7516 0 44.5486)
(-78.3178 0 44.8669)
(-78.8374 0 45.1576)
(-79.2824 0 45.4085)
(-79.7021 0 45.6448)
(-80.0634 0 45.8528)
(-80.4534 0 46.0759)
(-80.8103 -2.30877e-16 46.2875)
(-81.2616 0 46.5485)
(-81.6659 0 46.7911)
(-82.2235 0 47.1125)
(-82.6553 3.75221e-16 47.3716)
(-83.3242 0 47.7556)
(-83.7349 3.37224e-16 48.0006)
(-84.4931 0 48.4391)
(-84.8897 -6.77565e-20 48.6664)
(-85.5856 0 49.0831)
(-86.1943 2.7083e-16 49.4076)
(-86.335 0 49.5298)
(-87.6962 0 50.2575)
(-86.583 0 49.6487)
(-88.7593 4.32205e-16 50.8563)
(-86.4762 -8.15819e-16 49.4389)
(-87.7295 -7.69147e-16 49.8589)
(-79.8711 -3.61945e-16 45.2616)
(167.828 0 223.25)
(155.801 -1.91703e-18 200.884)
(145.314 0 177.003)
(128.113 0 152.786)
(100.939 -1.8033e-18 131.589)
(65.3723 -1.81781e-18 115.607)
(24.6115 1.85712e-18 105.493)
(-18.2732 -5.69398e-18 100.816)
(-60.7548 0 101.047)
(-100.92 -9.36624e-21 105.542)
(-137.447 2.05712e-18 112.587)
(-169.565 0 120.375)
(-197.084 0 127.902)
(-220.147 0 134.72)
(-239.072 0 140.642)
(-254.254 2.45922e-20 145.593)
(-266.111 2.15932e-20 149.558)
(-275.054 4.14482e-18 152.564)
(-281.459 4.10524e-18 154.664)
(-285.666 0 155.927)
(-287.971 -8.00741e-18 156.429)
(-288.634 -7.90769e-18 156.244)
(-287.879 0 155.452)
(-285.902 -2.7075e-20 154.122)
(-282.877 2.45202e-20 152.321)
(-278.952 -7.24243e-18 150.108)
(-274.26 0 147.537)
(-268.915 0 144.654)
(-263.021 1.34168e-17 141.507)
(-256.669 3.70523e-20 138.135)
(-249.939 2.52889e-17 134.575)
(-242.9 0 130.861)
(-235.616 2.38667e-17 127.02)
(-228.145 0 123.078)
(-220.54 0 119.071)
(-212.848 -1.09013e-17 115.019)
(-205.113 0 110.945)
(-197.38 -2.04801e-17 106.877)
(-189.691 3.44182e-20 102.825)
(-182.071 1.91739e-17 98.8118)
(-174.568 0 94.862)
(-167.204 2.54156e-20 90.9851)
(-160.009 0 87.1953)
(-153.014 0 83.5177)
(-146.237 0 79.9412)
(-139.663 0 76.465)
(-133.336 0 73.1225)
(-127.264 2.62034e-17 69.922)
(-121.434 0 66.865)
(-115.916 0 63.9603)
(-110.596 -1.87508e-17 61.1732)
(-105.602 0 58.5733)
(-100.741 -8.87458e-18 56.0611)
(-95.9819 7.0655e-19 53.7246)
(-93.1877 -2.66211e-17 50.7006)
(-76.1081 0 56.8765)
(-94.6069 8.67662e-16 30.6951)
(-150.661 -6.01292e-16 -51.4991)
(-91.4968 0 24.4239)
(-73.8995 0 39.5875)
(-74.516 0 39.0442)
(-72.7761 -1.93457e-17 39.0171)
(-70.3251 0 38.6882)
(-68.084 0 37.9547)
(-66.1731 4.87452e-17 37.136)
(-64.5117 -1.08892e-16 36.3346)
(-63.0464 0 35.5901)
(-61.746 0 34.9128)
(-60.5934 0 34.3057)
(-59.5787 0 33.7696)
(-58.6973 -5.5268e-17 33.3046)
(-57.9489 1.07504e-16 32.913)
(-57.3346 0 32.5965)
(-56.8631 0 32.3619)
(-56.5442 -9.71871e-17 32.2151)
(-56.3867 0 32.1617)
(-56.4144 -9.00941e-17 32.2186)
(-56.6559 8.6614e-17 32.4008)
(-57.1233 0 32.7135)
(-57.8442 0 33.1788)
(-58.8951 0 33.8464)
(-60.3398 0 34.7435)
(-62.148 0 35.8391)
(-64.3179 1.34804e-16 37.1528)
(-67.0554 0 38.8384)
(-70.5875 2.46594e-16 40.9993)
(-74.6989 0 43.4118)
(-78.6565 -3.44079e-20 45.5839)
(-81.6921 -6.74738e-20 47.1134)
(-83.5429 0 47.9593)
(-84.4967 1.9535e-16 48.3728)
(-85.0716 0 48.6612)
(-85.6259 0 48.9887)
(-86.2841 -3.38311e-16 49.382)
(-86.9846 0 49.7878)
(-87.6772 0 50.1768)
(-88.2897 0 50.5167)
(-88.8437 0 50.8213)
(-89.2895 0 51.0682)
(-89.6954 0 51.2917)
(-90.0007 0 51.4652)
(-90.3316 0 51.6518)
(-90.5864 2.15695e-16 51.8051)
(-90.9517 0 52.0153)
(-91.2184 0 52.1806)
(-91.6705 0 52.4392)
(-91.9253 -3.50283e-16 52.5984)
(-92.4605 -3.32197e-16 52.9027)
(-92.6471 -3.14777e-16 53.0192)
(-93.2206 2.98165e-16 53.3498)
(-93.3534 -6.63288e-20 53.4211)
(-93.7629 -2.67187e-16 53.6781)
(-94.1091 -5.05681e-16 53.8361)
(-93.7788 0 53.7039)
(-94.9329 4.51945e-16 54.2857)
(-93.1081 4.27018e-16 53.2813)
(-95.1373 0 54.3874)
(-91.89 3.80744e-16 52.3924)
(-93.2685 3.58953e-16 52.8134)
(-84.1619 3.37823e-16 47.5739)
(156.028 0 233.216)
(145.047 9.47508e-19 213.639)
(137.341 0 193.144)
(126.743 0 171.717)
(110.063 1.6985e-18 151.132)
(86.8635 1.71213e-18 133.256)
(58.1647 -1.74908e-18 119.308)
(25.3793 5.41965e-18 109.773)
(-9.93342 0 104.475)
(-46.2334 1.8973e-18 103.261)
(-82.1192 -3.83519e-18 105.954)
(-116.394 0 111.319)
(-148.128 3.92366e-18 117.895)
(-176.785 0 124.774)
(-202.11 3.94814e-18 131.465)
(-224.036 3.96013e-18 137.685)
(-242.631 3.93452e-18 143.253)
(-258.057 -3.90164e-18 148.053)
(-270.531 -7.71161e-18 152.024)
(-280.303 0 155.143)
(-287.626 7.53693e-18 157.425)
(-292.751 0 158.905)
(-295.915 0 159.634)
(-297.339 -7.11585e-18 159.672)
(-297.226 1.389e-17 159.082)
(-295.764 0 157.922)
(-293.121 0 156.252)
(-289.451 0 154.125)
(-284.893 -1.25463e-17 151.598)
(-279.572 1.22322e-17 148.721)
(-273.599 -3.37137e-20 145.538)
(-267.075 1.15092e-17 142.095)
(-260.089 -2.23958e-17 138.429)
(-252.723 1.08614e-17 134.575)
(-245.055 -1.05446e-17 130.578)
(-237.151 2.4664e-20 126.465)
(-229.075 0 122.269)
(-220.889 1.92601e-17 118.027)
(-212.654 1.86508e-17 113.755)
(-204.407 -1.8029e-17 109.48)
(-196.211 0 105.237)
(-188.102 1.67589e-17 101.039)
(-180.119 1.60959e-17 96.906)
(-172.307 1.54321e-17 92.8711)
(-164.698 1.47309e-17 88.9238)
(-157.279 0 85.0662)
(-150.103 0 81.3399)
(-143.189 -1.9771e-20 77.7552)
(-136.523 0 74.3218)
(-130.196 0 71.0438)
(-124.085 -1.76387e-17 67.8872)
(-118.341 1.37873e-17 64.9318)
(-112.763 8.33449e-18 62.048)
(-107.37 -5.06814e-19 59.3644)
(-103.269 1.03048e-18 56.3253)
(-89.5482 0 58.7462)
(-113.052 0 28.7157)
(-130.36 1.25217e-15 1.75024)
(-82.9568 0 50.8911)
(-81.1994 0 45.0384)
(-81.7553 3.5451e-17 43.3862)
(-79.7469 0 42.8848)
(-77.0408 0 42.2898)
(-74.5255 3.68871e-17 41.3828)
(-72.3385 -4.6506e-17 40.4195)
(-70.4185 1.0248e-16 39.4904)
(-68.7171 0 38.631)
(-67.2037 -5.41433e-17 37.8507)
(-65.8604 0 37.1521)
(-64.6762 0 36.5355)
(-63.6462 1.03578e-16 36.001)
(-62.7696 0 35.551)
(-62.0477 0 35.1874)
(-61.4902 0 34.9185)
(-61.1079 0 34.7504)
(-60.9114 0 34.6903)
(-60.9273 8.43664e-17 34.7577)
(-61.1878 -2.873e-20 34.969)
(-61.7079 -7.78836e-17 35.3308)
(-62.5202 7.47425e-17 35.8705)
(-63.7095 0 36.6443)
(-65.3455 0 37.6778)
(-67.3983 0 38.9383)
(-69.8749 0 40.4578)
(-72.997 0 42.4075)
(-76.9891 -3.87846e-20 44.8749)
(-81.5933 0 47.5788)
(-86.012 -1.0511e-16 49.9716)
(-89.4205 -6.84015e-20 51.6366)
(-91.5359 0 52.5583)
(-92.657 -1.82648e-16 53.0213)
(-93.3376 0 53.3547)
(-93.9619 1.6592e-16 53.7239)
(-94.678 5.14207e-20 54.1539)
(-95.4206 0 54.5842)
(-96.1481 0 54.9897)
(-96.7709 0 55.3309)
(-97.3228 0 55.6287)
(-97.7236 2.46723e-16 55.8455)
(-98.0652 0 56.0275)
(-98.2444 0 56.1274)
(-98.4386 2.11986e-16 56.2336)
(-98.4883 0 56.2719)
(-98.6614 -1.91266e-16 56.372)
(-98.6588 1.81552e-16 56.3877)
(-98.8745 0 56.5106)
(-98.7973 6.54139e-16 56.4842)
(-99.0418 8.23651e-20 56.6211)
(-98.8306 5.87773e-16 56.5124)
(-99.0297 -2.784e-16 56.63)
(-98.7103 -2.63598e-16 56.4384)
(-98.6115 2.49453e-16 56.4142)
(-98.4818 2.36022e-16 56.2821)
(-97.4545 2.23119e-16 55.7733)
(-98.1277 -4.21898e-16 56.0492)
(-95.3981 -3.98613e-16 54.5451)
(-96.9699 -3.76386e-16 55.3666)
(-92.5112 -3.55251e-16 52.658)
(-93.8601 0 52.9742)
(-83.1639 0 46.8824)
(145.301 0 242.472)
(135.311 1.04469e-18 225.135)
(128.618 0 206.882)
(120.712 0 187.922)
(109.28 0 168.947)
(93.6605 0 151.094)
(74.0273 1.77783e-18 135.457)
(50.7222 -1.72362e-18 122.819)
(24.2734 1.78478e-18 113.547)
(-4.51381 -3.55659e-18 107.565)
(-34.7763 3.60744e-18 104.964)
(-65.649 0 105.879)
(-96.2412 -3.6903e-18 109.411)
(-125.723 0 114.396)
(-153.496 -3.71298e-18 120.071)
(-179.137 -3.68483e-18 125.984)
(-202.355 0 131.84)
(-222.977 0 137.415)
(-240.933 3.61764e-18 142.532)
(-256.238 0 147.056)
(-268.97 0 150.9)
(-279.254 -6.91571e-18 154.014)
(-287.24 0 156.384)
(-293.098 0 158.019)
(-297.006 -6.51785e-18 158.946)
(-299.14 0 159.201)
(-299.675 0 158.826)
(-298.779 0 157.867)
(-296.61 2.3547e-17 156.378)
(-293.318 0 154.407)
(-289.04 -3.35557e-20 152.004)
(-283.902 -3.12043e-20 149.218)
(-278.02 1.05098e-17 146.094)
(-271.499 -1.02066e-17 142.674)
(-264.441 1.97924e-17 139.01)
(-256.939 9.61092e-18 135.137)
(-249.075 0 131.096)
(-240.932 0 126.934)
(-232.595 1.74602e-17 122.672)
(-224.112 -1.68801e-17 118.345)
(-215.569 0 113.998)
(-207.017 0 109.649)
(-198.506 -1.69273e-20 105.321)
(-190.101 -1.44922e-17 101.062)
(-181.853 -1.38326e-17 96.8608)
(-173.75 -2.62745e-17 92.7231)
(-165.858 0 88.6987)
(-158.206 -6.56812e-21 84.8029)
(-150.789 0 81.0572)
(-143.718 0 77.4583)
(-136.862 1.65546e-17 73.9752)
(-130.405 -1.29388e-17 70.699)
(-124.13 0 67.4678)
(-118.095 -1.47039e-19 64.4693)
(-112.993 1.66919e-18 61.2742)
(-102.169 0 60.8496)
(-123.487 0 34.3829)
(-119.587 -1.28501e-15 35.465)
(-87.9461 0 56.0588)
(-88.7253 0 49.0195)
(-88.3893 -5.69679e-17 47.0406)
(-85.9993 0 46.2123)
(-83.0041 0 45.3733)
(-80.1958 -7.01056e-17 44.2978)
(-77.7194 4.3586e-17 43.1919)
(-75.53 -4.81066e-17 42.136)
(-73.5837 0 41.1629)
(-71.8498 5.07271e-17 40.2807)
(-70.3098 0 39.492)
(-68.951 -4.96381e-17 38.7963)
(-67.7681 -4.85018e-17 38.1936)
(-66.7593 0 37.6865)
(-65.9253 0 37.2771)
(-65.2767 8.82692e-17 36.9743)
(-64.8247 8.51399e-17 36.7848)
(-64.5808 0 36.7167)
(-64.574 0 36.792)
(-64.839 -1.51713e-16 37.0279)
(-65.3935 7.28824e-17 37.4325)
(-66.2736 -1.39844e-16 38.0377)
(-67.5691 0 38.904)
(-69.3552 0 40.0559)
(-71.6042 0 41.4591)
(-74.3284 0 43.157)
(-77.754 0 45.3312)
(-82.099 -3.93891e-20 48.0497)
(-87.0818 0 50.9801)
(-91.8732 0 53.5363)
(-95.6106 -6.87437e-20 55.2998)
(-97.9837 0 56.281)
(-99.2762 -1.70602e-16 56.7863)
(-100.057 0 57.1562)
(-100.728 -1.55063e-16 57.5508)
(-101.465 5.15973e-20 57.9953)
(-102.203 0 58.4223)
(-102.917 0 58.8145)
(-103.496 0 59.124)
(-103.993 0 59.3822)
(-104.288 -7.22782e-20 59.5311)
(-104.502 2.19139e-16 59.6318)
(-104.471 -2.08294e-16 59.6067)
(-104.436 -1.97992e-16 59.5766)
(-104.159 0 59.4286)
(-104.016 1.7862e-16 59.3448)
(-103.592 -1.69539e-16 59.1225)
(-103.422 0 59.0217)
(-102.842 -3.05357e-16 58.7103)
(-102.623 5.79043e-16 58.5788)
(-101.834 -2.74352e-16 58.1391)
(-101.463 0 57.93)
(-100.506 2.45959e-16 57.3652)
(-99.6925 0 56.9414)
(-98.8794 0 56.3947)
(-96.9875 -2.08276e-16 55.4134)
(-96.9115 0 55.225)
(-93.1919 0 53.1718)
(-94.0149 3.51314e-16 53.5368)
(-88.2615 3.31578e-16 50.0767)
(-89.424 3.12535e-16 50.1941)
(-76.997 -2.94177e-16 43.2312)
(135.312 0 251.074)
(126.158 -9.81712e-19 235.597)
(120.257 -2.00001e-18 219.153)
(113.79 0 202.187)
(104.791 0 184.919)
(93.0445 0 167.968)
(78.7343 -1.67082e-18 152.111)
(61.8787 0 138.063)
(42.5067 -1.67729e-18 126.344)
(20.8539 0 117.219)
(-2.63967 0 110.634)
(-27.5673 3.45278e-18 106.832)
(-53.4963 0 106.155)
(-79.8424 3.46137e-18 107.923)
(-105.981 -3.45871e-18 111.196)
(-131.409 3.46202e-18 115.354)
(-155.709 0 120.029)
(-178.532 -3.40269e-18 124.968)
(-199.594 0 129.96)
(-218.682 -6.66904e-18 134.812)
(-235.659 0 139.362)
(-250.452 6.49608e-18 143.477)
(-263.045 -6.3522e-18 147.059)
(-273.472 0 150.047)
(-281.804 0 152.403)
(-288.142 5.94079e-18 154.111)
(-292.605 0 155.171)
(-295.327 0 155.598)
(-296.447 -3.75441e-20 155.419)
(-296.107 0 154.668)
(-294.446 -2.08139e-17 153.384)
(-291.598 -1.01269e-17 151.608)