/*--------------------------------*- C++ -*----------------------------------*\
| =========                 |                                                 |
| \\      /  F ield         | OpenFOAM: The Open Source CFD Toolbox           |
|  \\    /   O peration     | Version:  2412                                  |
|   \\  /    A nd           | Website:  www.openfoam.com                      |
|    \\/     M anipulation  |                                                 |
\*---------------------------------------------------------------------------*/
FoamFile
{
    version     2.0;
    format      ascii;
    arch        "LSB;label=32;scalar=64";
    class       volVectorField;
    location    "0.49";
    object      ddtCorrDdt0(U);
}
// * * * * * * * * * * * * * * * * * * * * * * * * * * * * * * * * * * * * * //

dimensions      [0 1 -2 0 0 0 0];

internalField   nonuniform List<vector> 
12600
(
(-4.50986 0 2.0696)
(-1.17036 6.59517e-19 0.274186)
(-1.19472 4.83827e-19 0.301302)
(-0.615203 0 0.215957)
(-0.523006 6.39468e-21 0.0865149)
(-0.183808 0 0.164193)
(0.772826 -1.55468e-19 0.569792)
(1.16527 0 0.715457)
(-0.814612 0 -0.302445)
(-3.97974 0 -1.73515)
(-2.58863 0 -0.474501)
(3.8284 -5.20825e-18 2.42174)
(7.11624 2.01987e-18 3.16785)
(-0.349027 0 -1.02331)
(-11.7499 -6.22809e-18 -5.71424)
(-9.22086 0 -2.79256)
(10.3754 3.16117e-18 6.76766)
(22.6009 0 9.72112)
(4.0294 -2.91547e-17 -2.46141)
(-29.7608 0 -16.9119)
(-35.3024 0 -11.2564)
(4.7182 0 16.3686)
(61.185 4.64379e-17 39.5431)
(52.6458 2.39984e-16 11.4289)
(-22.829 2.78384e-17 -35.2121)
(-89.7327 7.79935e-18 -49.1595)
(-68.6378 0 -6.63632)
(39.3216 0 53.7989)
(75.9261 0 46.999)
(21.9624 1.66571e-17 6.85972)
(-5.32463 -4.41623e-17 -4.15001)
(2.29394 0 1.97136)
(6.05317 0 3.03122)
(-0.420319 1.88014e-17 -0.695168)
(-3.86054 -1.38914e-18 -1.86118)
(-0.941998 0 -0.0451661)
(1.73111 0 1.05694)
(0.758724 1.22095e-17 0.319383)
(-1.08554 0 -0.538993)
(-1.06406 -4.74028e-19 -0.378295)
(0.123883 -8.10071e-18 0.215419)
(0.64767 -1.01635e-18 0.390554)
(0.126568 0 0.119307)
(-0.560008 7.16566e-19 -0.102311)
(-0.750184 -4.57228e-18 -0.124773)
(-0.325304 1.39659e-17 0.0633549)
(0.348145 -9.53432e-18 0.31429)
(0.604432 0 0.400288)
(0.0359991 -1.09429e-17 0.167802)
(-0.808938 3.18231e-18 -0.242091)
(-0.752071 0 -0.415385)
(0.806357 -5.46629e-19 0.225492)
(2.14961 -2.06608e-18 0.769004)
(1.17432 0 0.20928)
(-1.44434 3.63907e-17 -1.12445)
(-1.62206 0 -1.03423)
(1.28705 0 -0.243024)
(3.51411 1.65475e-18 0.117219)
(1.7715 7.33938e-19 -0.0118136)
(-2.29179 -8.50958e-17 -0.17564)
(-3.92699 -9.08118e-17 -0.687337)
(0.0765803 3.59097e-16 -0.105974)
(5.73106 0 1.29555)
(8.31652 -4.86638e-16 3.52577)
(-3.72796 -7.68036e-16 -4.99073)
(-9.20216 -1.03888e-16 -4.04505)
(-3.8486 5.38401e-16 -1.42649)
(3.37046 0 0.646995)
(8.30567 0 4.20561)
(3.05026 0 1.02664)
(-4.81891 0 -1.89825)
(-6.17231 0 -2.46286)
(1.78959 -1.19807e-15 -2.10299)
(12.9396 -3.68351e-17 -1.93198)
(15.5633 0 -0.958174)
(4.21531 0 -0.522159)
(-16.3151 -6.40838e-16 1.76367)
(-34.2453 3.62282e-18 11.7855)
(-35.3707 2.21416e-15 23.1964)
(-48.6591 0 37.0187)
(77.1114 0 -45.0681)
(69.7326 0 -49.5295)
(-30.5836 2.61137e-17 4.90787)
(3.38169 0 0.477938)
(12.2911 0 0.0582093)
(-6.53108 8.03368e-16 6.16401)
(-1.32295 -1.14052e-17 3.43765)
(-4.99775 0 0.601886)
(9.02956 0 -9.06625)
(30.1876 -1.07258e-15 -19.4969)
(36.0654 -3.27819e-15 -19.8698)
(31.09 -2.09525e-15 -15.1102)
(12.6848 2.37368e-16 -3.88885)
(-12.5254 -5.25777e-18 6.89357)
(-25.0499 2.07886e-17 12.7737)
(-27.1388 5.21333e-16 14.1818)
(-19.4657 0 11.61)
(-11.8959 0 7.98642)
(-9.87753 0 5.7605)
(-5.14092 -1.75294e-15 1.92932)
(-1.7403 -5.81328e-16 -0.0433007)
(-1.0081 9.96599e-16 0.728666)
(-1.11883 1.07991e-16 1.63347)
(-3.06733 0 2.33105)
(-0.815064 0 -0.315226)
(6.28212 0 -4.82716)
(10.5461 1.19698e-15 -6.25488)
(4.85991 0 -2.17081)
(-3.13119 1.8822e-16 2.56764)
(-4.55659 0 2.61402)
(-3.03081 0 1.39945)
(-1.68005 -3.55999e-17 0.761354)
(-0.718204 0 0.43268)
(0.0110327 0 0.0918727)
(0.404883 0 -0.157593)
(1.03159 1.32457e-16 -0.547938)
(1.18337 0 -0.739379)
(1.11847 -2.82806e-16 -0.728486)
(0.603228 0 -0.395525)
(-0.602337 -6.18027e-20 0.355377)
(-4.43116 -5.88094e-20 3.47558)
(-3.39817 -4.46439e-19 1.0014)
(-2.48279 -2.64056e-19 0.817122)
(-1.73057 0 0.618592)
(-1.27531 -2.81741e-19 0.395553)
(-0.389901 3.19677e-19 0.537779)
(0.858292 1.62175e-19 1.0945)
(0.520813 1.00261e-18 1.06787)
(-2.56555 0 -0.534626)
(-4.71668 0 -2.0975)
(-0.761329 0 0.0171016)
(6.18734 0 4.05954)
(6.15254 0 4.27499)
(-5.15329 0 -2.48601)
(-14.5798 5.08107e-18 -8.52235)
(-4.53336 0 -2.35038)
(18.2298 1.46027e-17 12.04)
(22.0066 0 13.4392)
(-8.2879 5.6437e-17 -8.33705)
(-39.9819 7.81213e-18 -28.712)
(-25.5496 0 -11.522)
(35.1322 6.10356e-17 41.88)
(84.7922 -1.03417e-17 80.4486)
(29.4746 -1.24367e-16 5.28173)
(-69.0043 1.14092e-16 -87.1591)
(-110.707 0 -96.577)
(-29.4729 1.54541e-16 17.9039)
(102.527 0 139.383)
(95.0813 0 96.7618)
(13.5224 0 10.9807)
(-8.13971 2.47847e-17 -7.84707)
(5.25417 0 3.60133)
(6.99294 0 4.73846)
(-1.57009 0 -1.58921)
(-4.1745 0 -3.0623)
(-0.0407409 0 0.0296755)
(2.49629 0 1.58517)
(0.86434 -1.25629e-17 0.276163)
(-1.0693 0 -0.999029)
(-0.684856 1.78196e-17 -0.657073)
(0.703193 1.5714e-17 0.237169)
(1.10204 -3.14873e-19 0.4404)
(0.384616 0 0.0258996)
(-0.400156 0 -0.267093)
(-0.616379 9.74237e-18 -0.233194)
(-0.202792 -1.42603e-17 0.0893291)
(0.424306 8.35948e-18 0.49539)
(0.558772 0 0.666451)
(-0.199936 1.10294e-17 0.365082)
(-1.1812 0 -0.209675)
(-1.00866 0 -0.433247)
(0.872679 -1.98141e-17 0.425499)
(2.38743 0 1.16582)
(1.17954 0 0.196721)
(-1.65004 -3.67672e-17 -1.92485)
(-1.41966 0 -1.77246)
(1.84025 0 -0.622959)
(4.16831 2.84305e-18 0.0924543)
(2.1738 -1.29086e-16 0.0301687)
(-2.50492 1.21038e-18 -0.395965)
(-4.61492 0 -1.06877)
(-0.389331 -3.59377e-16 0.0524134)
(5.97887 -1.5328e-17 2.18531)
(8.16695 0 4.24308)
(-7.69545 1.45266e-15 -11.5057)
(-9.79763 -3.8165e-17 -6.43123)
(-3.53473 0 -2.27196)
(4.22561 2.37591e-16 0.950634)
(9.89078 0 6.32339)
(3.65804 0 1.34731)
(-3.53802 0 -3.46638)
(-2.87079 0 -5.27435)
(8.02243 2.35108e-15 -6.0901)
(21.6202 5.10996e-17 -6.66681)
(22.8566 0 -4.34089)
(5.1457 0 -0.494374)
(-29.5358 -5.89063e-16 9.23316)
(-75.5008 1.14545e-17 36.0793)
(-109.076 3.04859e-18 67.673)
(-183.735 0 112.376)
(223.367 0 -137.489)
(244.196 0 -147.888)
(-50.2992 3.34946e-17 19.3172)
(3.39011 -3.92016e-15 0.765147)
(15.0514 2.23754e-15 -0.168665)
(-28.3956 -7.76221e-16 19.285)
(-8.0771 -2.07267e-17 8.06539)
(-4.81523 1.75391e-15 0.327452)
(45.4979 0 -31.149)
(104.396 1.03093e-15 -63.6931)
(107.017 0 -61.4265)
(81.2102 2.00898e-15 -43.6957)
(25.4254 0 -9.11613)
(-43.2196 2.82617e-15 25.6694)
(-73.8508 5.99593e-16 41.3058)
(-78.205 0 43.9024)
(-59.9008 0 35.0538)
(-39.267 5.87007e-16 23.939)
(-29.8728 -1.56807e-15 17.2357)
(-12.5809 1.65633e-15 5.91652)
(-2.00309 5.52108e-16 -0.0126719)
(-3.74373 -9.45658e-16 2.41199)
(-6.86419 0 5.1524)
(-10.0376 -7.27946e-16 6.52075)
(2.12277 0 -2.38863)
(24.8214 0 -15.9162)
(32.0525 -1.13414e-15 -18.8323)
(10.3536 0 -5.08273)
(-12.133 5.7855e-18 8.0726)
(-13.4397 -5.10526e-16 7.78039)
(-7.9599 0 4.20392)
(-4.15862 0 2.188)
(-1.96816 0 1.16848)
(0.170097 1.66562e-16 -0.00318636)
(1.50283 -2.2466e-16 -0.811947)
(3.50219 -1.24521e-16 -2.01655)
(3.87142 0 -2.34418)
(3.47359 2.65626e-16 -2.10736)
(1.5622 0 -0.945745)
(-2.31464 7.6567e-16 1.35747)
(-4.62825 7.8794e-21 2.57727)
(-4.46306 7.32514e-20 1.24826)
(-4.159 -2.3768e-19 0.974405)
(-3.5241 0 0.948477)
(-2.62454 -2.48191e-19 0.904227)
(-1.27035 -1.15404e-19 1.03598)
(-0.120406 0 1.18682)
(-0.93323 -9.51625e-19 0.721903)
(-3.5018 0 -0.243928)
(-3.87201 1.19833e-18 -0.189723)
(0.491202 0 1.40568)
(5.34357 0 2.87955)
(2.6065 0 1.26549)
(-7.42227 0 -2.84092)
(-11.212 -3.20244e-18 -3.61692)
(1.44419 0 2.57624)
(17.4109 0 8.51433)
(11.5472 0 2.73276)
(-16.2134 -2.47586e-17 -12.0882)
(-30.0343 1.39913e-17 -14.7562)
(-0.729857 0 9.47707)
(49.5199 -3.85271e-17 43.1062)
(54.1393 0 43.8852)
(-17.5508 7.16893e-17 -27.3828)
(-79.8273 0 -84.791)
(-70.5649 0 -64.4111)
(42.1418 -1.46581e-16 78.7104)
(126.926 0 169.124)
(64.0368 0 78.191)
(-4.27579 8.92895e-18 2.49706)
(-7.68571 0 -6.47942)
(6.61906 0 3.30993)
(5.45121 0 2.51352)
(-2.15465 0 -2.04364)
(-3.10205 7.7392e-18 -2.09666)
(0.793432 0 0.261371)
(2.44842 0 0.836213)
(0.793324 1.15501e-17 -0.313097)
(-0.609467 0 -0.983678)
(-0.025084 -1.75515e-17 -0.568871)
(1.13602 -7.77578e-19 -0.0415603)
(1.32593 2.98174e-19 -0.0455582)
(0.633045 0 -0.310482)
(-0.0784759 0 -0.399345)
(-0.291059 -4.7964e-18 -0.242242)
(-0.00120939 0 0.0359704)
(0.439946 -7.90769e-18 0.329186)
(0.436504 0 0.485013)
(-0.319827 -3.24529e-20 0.365253)
(-1.15536 0 0.0884331)
(-0.817455 0 0.0347566)
(0.880329 0 0.399048)
(2.155 7.39021e-18 0.636756)
(1.08867 0 -0.16577)
(-1.08131 0 -1.49937)
(-0.689035 0 -1.46592)
(2.34612 0 -0.77964)
(4.51285 -4.20239e-17 -0.0790304)
(2.30811 0 0.074345)
(-2.76694 1.47532e-18 -0.33492)
(-4.88329 0 -0.464604)
(-0.868543 1.69467e-16 0.591558)
(4.95557 1.44511e-17 1.71329)
(4.97864 0 0.425376)
(-9.31648 -1.20119e-15 -14.0837)
(-7.97927 9.60901e-17 -4.69209)
(-2.57938 0 -1.57507)
(4.42397 -2.23751e-16 0.668227)
(8.16828 0 3.07254)
(3.34352 0 0.0861771)
(-1.48979 0 -3.57383)
(1.17219 0 -6.34777)
(14.0138 -7.24022e-18 -9.30899)
(28.746 -4.80558e-17 -10.9827)
(27.2506 0 -7.55135)
(3.12191 0 1.01281)
(-39.9797 2.0684e-17 18.4906)
(-101.244 -2.01281e-15 52.8612)
(-165.312 -1.01716e-15 100.424)
(-312.331 0 172.07)
(339.998 0 -215.721)
(406.364 0 -225.443)
(-50.6165 -5.61058e-15 31.4458)
(2.84996 2.33989e-17 -0.128432)
(14.7398 -2.09899e-15 1.20877)
(-45.9912 0 29.5188)
(-14.0646 7.98641e-16 9.79159)
(1.8916 -1.64429e-15 -4.29596)
(87.6757 0 -57.8965)
(177.035 0 -106.981)
(168.527 2.96002e-15 -95.1603)
(117.8 0 -61.4369)
(25.9234 -3.27603e-16 -9.46222)
(-76.6019 -7.42555e-19 48.1864)
(-118.716 -5.23419e-16 67.7805)
(-121.86 -4.83939e-16 68.4642)
(-95.1369 0 53.7145)
(-63.9967 -5.49349e-16 36.848)
(-47.628 1.46725e-15 26.2813)
(-19.4568 -1.54045e-15 9.06765)
(-2.29618 0 0.111019)
(-6.53545 -8.8194e-16 4.19891)
(-12.4037 0 8.43781)
(-15.2264 6.80682e-16 9.02075)
(7.65828 -5.80633e-16 -6.56237)
(43.8999 0 -27.3496)
(50.4927 1.06014e-15 -28.7148)
(12.8806 0 -5.31176)
(-20.8017 -3.43622e-16 13.3712)
(-21.0722 4.7707e-16 11.8585)
(-12.151 0 6.36562)
(-6.08101 0 3.1275)
(-2.78316 0 1.53267)
(0.793811 3.04362e-19 -0.463509)
(2.94279 2.09849e-16 -1.74834)
(6.09618 1.27248e-16 -3.59006)
(6.41375 0 -3.77872)
(5.39007 2.43998e-16 -3.10697)
(2.00478 0 -1.0297)
(-4.34254 4.7268e-20 2.66849)
(-4.58514 4.54481e-20 2.15554)
(-4.96047 1.53669e-19 1.31782)
(-5.41252 9.85977e-21 1.01574)
(-5.20628 -5.78832e-20 1.16762)
(-4.27914 -1.83644e-19 1.35021)
(-2.72323 -2.53363e-19 1.54087)
(-1.67194 0 1.50367)
(-2.59756 0 0.941439)
(-4.55173 0 0.350014)
(-3.97438 -1.13508e-18 0.766348)
(0.372402 0 1.96978)
(3.72801 0 2.22672)
(-0.0489621 0 0.177536)
(-8.08372 0 -2.04627)
(-8.31717 0 -0.3782)
(3.82305 -1.19501e-17 4.39227)
(13.5509 5.88394e-19 4.66747)
(3.78894 0 -3.5611)
(-16.2997 0 -10.358)
(-16.4856 -2.02797e-17 -1.19797)
(12.6383 4.17512e-17 19.9392)
(36.8948 -1.83475e-17 25.1692)
(11.7438 -5.33594e-17 -7.08236)
(-36.8956 -6.78741e-17 -40.5669)
(-53.1417 -2.80937e-17 -40.2787)
(-3.18475 5.56469e-17 7.50897)
(84.6302 0 100.914)
(101.355 7.93047e-17 136.174)
(14.5767 0 32.255)
(-18.1144 -8.44742e-18 -7.30507)
(-5.58429 0 -4.42303)
(7.72147 0 3.416)
(4.07428 0 0.97033)
(-2.58342 7.84011e-18 -2.43958)
(-2.30668 -7.32108e-18 -1.6028)
(1.38445 0 0.378249)
(2.43085 0 0.40672)
(0.76049 -1.0922e-17 -0.725989)
(-0.283464 0 -1.11982)
(0.461076 2.65328e-19 -0.629747)
(1.50755 -5.88948e-18 -0.22922)
(1.56664 0 -0.322287)
(0.863406 0 -0.533495)
(0.188029 0 -0.502432)
(-0.0375115 0 -0.26111)
(0.177108 -1.21283e-17 0.0368804)
(0.507092 0 0.30691)
(0.399738 -4.67871e-18 0.44775)
(-0.397617 -9.8158e-18 0.368483)
(-1.17597 0 0.18195)
(-0.732932 0 0.180956)
(0.970961 0 0.399243)
(2.15149 -6.97238e-18 0.377171)
(1.17042 2.78054e-17 -0.394442)
(-0.625522 2.35289e-17 -1.36202)
(-0.151491 0 -1.47941)
(2.849 -6.95527e-17 -0.882677)
(4.83225 4.33243e-17 -0.191239)
(2.3366 0 0.0450464)
(-2.97379 1.45421e-16 -0.108645)
(-5.2004 0 0.101044)
(-1.39258 -1.59563e-16 1.13559)
(4.0317 -2.07832e-18 1.64684)
(2.91534 0 -1.16042)
(-10.5994 5.20958e-16 -16.1345)
(-6.92233 -1.32651e-16 -4.42899)
(-1.95215 0 -1.4229)
(4.67696 0 0.665381)
(7.25424 0 1.30736)
(3.25572 -5.03866e-16 -0.919885)
(0.0720813 -3.47144e-17 -4.58735)
(4.6663 0 -8.18584)
(19.464 -1.02857e-15 -12.508)
(34.6999 4.68249e-17 -14.529)
(29.7595 0 -9.07063)
(-1.4774 0 3.83883)
(-48.926 5.00346e-16 26.3587)
(-111.347 -2.63942e-17 61.2989)
(-203.4 0 128.732)
(-417.453 0 215.368)
(414.378 0 -284.775)
(549.397 0 -292.09)
(-34.2357 8.09787e-18 37.1157)
(3.4242 3.42677e-15 -1.29909)
(12.6732 0 4.84462)
(-59.7044 0 37.0355)
(-17.4944 0 10.4543)
(15.081 -1.56676e-15 -14.1745)
(134.44 0 -89.9299)
(245.603 9.72319e-16 -148.841)
(217.01 -2.77189e-15 -121.321)
(138.51 1.71939e-15 -69.6061)
(18.2666 3.06689e-16 1.24635)
(-111.743 -2.4768e-15 71.683)
(-157.367 4.89858e-16 91.1479)
(-156.445 4.52844e-16 88.1326)
(-123.753 0 68.8679)
(-85.3395 0 48.0717)
(-62.7746 1.37412e-15 33.8269)
(-25.7302 7.18713e-16 11.5576)
(-2.91821 -4.9398e-16 0.286282)
(-9.30976 1.91516e-18 6.11027)
(-17.3712 0 11.5375)
(-18.1924 0 10.2734)
(15.5881 5.42718e-16 -12.2512)
(62.4819 0 -38.9233)
(65.149 -9.93451e-16 -36.5164)
(12.7006 0 -3.85638)
(-28.5253 4.30284e-19 18.5078)
(-27.2643 0 15.2319)
(-15.5888 2.74375e-16 8.06765)
(-7.4254 -2.97013e-17 3.73877)
(-3.1581 9.69574e-17 1.6478)
(1.82837 2.82928e-19 -1.14279)
(4.62022 0 -2.78877)
(8.63268 -1.18834e-16 -5.1142)
(8.60028 -3.67482e-16 -5.00067)
(6.67372 -2.27837e-16 -3.77406)
(1.85075 0 -0.780296)
(-6.68605 3.7738e-21 4.16841)
(-4.55048 0 1.87569)
(-5.20341 8.99075e-20 1.30795)
(-5.98714 0 1.05247)
(-6.2047 5.46883e-20 1.23131)
(-5.52331 3.95385e-19 1.56512)
(-4.14189 7.13512e-20 1.85716)
(-3.37796 0 1.79751)
(-4.37051 0 1.30911)
(-5.83316 3.31822e-19 0.974087)
(-4.7275 -1.18556e-18 1.42194)
(-0.648732 1.49703e-18 2.19809)
(1.76101 -1.28418e-18 1.92505)
(-1.99517 -6.02534e-18 0.223243)
(-8.06942 0 -0.690398)
(-6.67035 0 1.43752)
(3.46314 2.07516e-17 4.15651)
(9.09168 -8.71695e-19 1.80521)
(-0.148498 0 -5.13302)
(-12.685 8.70066e-18 -6.30485)
(-7.41202 -1.41236e-17 5.13882)
(13.179 -3.94684e-17 17.2899)
(19.6549 0 8.76118)
(-6.55715 5.04372e-17 -21.3124)
(-31.2034 -1.05834e-17 -31.5823)
(-17.7917 2.65541e-17 -4.11942)
(39.4825 -4.42947e-17 50.9273)
(77.8002 0 73.4325)
(39.6295 2.5024e-17 50.8579)
(-24.2992 0 -5.49167)
(-24.8336 2.40232e-17 -16.3237)
(-1.74243 0 -1.35709)
(8.45635 0 3.71073)
(2.80188 0 -0.0777112)
(-2.80095 -7.40481e-18 -2.65737)
(-1.60738 0 -1.28356)
(1.79006 0 0.38403)
(2.35097 0 0.0522368)
(0.732989 0 -1.04843)
(-0.00250057 -1.23226e-18 -1.26043)
(0.844117 1.47369e-17 -0.733601)
(1.77835 0 -0.415324)
(1.7381 -1.39881e-18 -0.550318)
(1.03866 0 -0.706802)
(0.391382 0 -0.584768)
(0.146485 0 -0.279688)
(0.295367 5.80346e-19 0.0364615)
(0.540109 0 0.293937)
(0.357611 4.41155e-18 0.421985)
(-0.464888 0 0.360156)
(-1.19249 0 0.216265)
(-0.667318 -1.60235e-17 0.2197)
(1.06271 0 0.34035)
(2.21251 0 0.169576)
(1.31715 6.33719e-20 -0.578863)
(-0.243062 -2.21614e-17 -1.36263)
(0.33473 0 -1.50464)
(3.29525 4.0346e-19 -0.95856)
(5.08798 -4.41103e-17 -0.26584)
(2.31618 0 0.0622235)
(-3.21121 -6.77247e-17 0.137584)
(-5.55382 0 0.630353)
(-1.9435 1.50109e-16 1.67809)
(3.10001 1.95497e-18 1.72706)
(1.1772 0 -1.86661)
(-8.69478 -3.04237e-16 -12.6247)
(-5.69277 -1.75056e-17 -4.03225)
(-1.38112 0 -1.31823)
(4.85249 0 0.609268)
(6.89921 0 0.511357)
(3.40468 9.43315e-16 -1.68241)
(1.68553 3.98759e-18 -5.6824)
(8.051 0 -10.1685)
(24.4999 9.484e-16 -15.5878)
(39.5331 -8.30076e-17 -17.3379)
(30.4598 0 -8.9006)
(-7.92109 0 8.47787)
(-55.6745 0 32.9103)
(-104.926 -3.31216e-17 61.7763)
(-229.602 0 152.925)
(-479.904 0 229.9)
(437.646 0 -332.076)
(672.372 0 -343.993)
(-2.1692 2.46036e-15 38.2553)
(5.79049 3.161e-15 -2.97748)
(9.50931 0 10.0056)
(-69.6705 0 42.5442)
(-18.376 0 8.76505)
(34.6243 -1.4045e-17 -30.1279)
(185.148 0 -125.996)
(308.149 -9.10212e-16 -186.987)
(250.852 0 -137.078)
(144.798 -1.60913e-15 -66.9367)
(-0.287172 0 14.0245)
(-146.213 1.15657e-15 95.7927)
(-188.443 0 109.801)
(-182.156 0 101.855)
(-146.185 0 79.7117)
(-103.983 0 57.1221)
(-75.9299 -1.28487e-15 39.5876)
(-31.558 0 13.3443)
(-3.98639 4.61794e-16 0.589046)
(-12.0483 7.69021e-16 8.09112)
(-21.6158 0 14.2091)
(-19.1105 0 9.94317)
(25.1024 0 -19.7056)
(79.9384 0 -50.0011)
(76.3744 -1.49816e-18 -41.6344)
(10.8275 0 -0.551582)
(-35.1866 2.9859e-16 23.0939)
(-32.2522 0 17.6787)
(-18.4224 -5.12635e-16 9.23928)
(-8.31926 2.77402e-17 3.97248)
(-3.21307 -9.05501e-17 1.48531)
(3.08856 -1.36241e-16 -2.0455)
(6.32143 0 -3.91103)
(10.9096 0 -6.50163)
(10.3041 6.86137e-16 -5.91875)
(7.31452 -2.10243e-16 -3.98433)
(1.18899 1.5e-16 -0.113786)
(-9.27956 -3.1167e-16 5.82877)
(-4.5803 0 1.55149)
(-5.26968 -6.0542e-19 1.27475)
(-6.08973 0 1.09051)
(-6.50326 0 1.23245)
(-6.01108 0 1.61592)
(-4.94284 0 1.97745)
(-4.63061 0 1.97859)
(-5.85129 -8.58722e-19 1.62388)
(-7.11431 -3.1307e-19 1.46067)
(-5.79809 2.28561e-18 1.89047)
(-2.04019 -2.66077e-18 2.40416)
(-0.178886 1.21206e-18 1.98741)
(-3.5378 5.68716e-18 0.754194)
(-8.13088 0 0.538411)
(-6.24648 0 2.32537)
(1.75655 -1.64372e-17 3.41483)
(5.20936 4.62097e-19 0.29119)
(-1.72403 0 -4.47361)
(-8.7157 -8.21285e-18 -2.84101)
(-3.18553 1.33301e-17 6.54672)
(8.15421 0 10.992)
(6.42671 -2.06866e-18 -0.696209)
(-11.3402 0 -19.8835)
(-18.4258 1.12839e-17 -18.2207)
(3.44264 -4.24376e-18 9.1406)
(42.3797 -3.12572e-17 42.0345)
(45.4075 0 33.3406)
(-10.6885 -9.43236e-17 -16.4268)
(-35.622 3.73167e-17 -20.3008)
(-20.373 -5.70418e-17 -13.3048)
(4.7149 -2.24777e-17 3.52882)
(8.37465 0 3.76013)
(1.4569 1.52345e-17 -0.952362)
(-2.8575 0 -2.76192)
(-0.936575 0 -1.03587)
(2.07665 0 0.334914)
(2.21667 0 -0.260622)
(0.7037 0 -1.31074)
(0.250691 -6.50704e-19 -1.38802)
(1.15603 -6.71963e-18 -0.850691)
(1.97258 0 -0.593711)
(1.85368 2.88808e-18 -0.742034)
(1.17189 0 -0.840783)
(0.552663 0 -0.645608)
(0.28912 0 -0.291488)
(0.384898 1.02279e-17 0.0428361)
(0.567397 0 0.296323)
(0.332141 0 0.412861)
(-0.504078 0 0.351011)
(-1.18445 0 0.218569)
(-0.587822 3.04068e-17 0.205377)
(1.1694 0 0.248499)
(2.30604 0 -0.0193711)
(1.47313 -2.47058e-17 -0.762294)
(0.0635931 0 -1.45986)
(0.742844 0 -1.56587)
(3.67234 1.21884e-16 -1.00708)
(5.27887 2.1505e-17 -0.288128)
(2.25063 0 0.135188)
(-3.46308 0 0.420745)
(-5.91082 0 1.15722)
(-2.50304 -1.40337e-16 2.21997)
(2.16848 0 1.90766)
(0.155796 0 -1.919)
(-4.74135 5.35248e-16 -5.48601)
(-4.91032 2.81902e-16 -3.66191)
(-0.864895 0 -1.24865)
(5.02866 0 0.568103)
(6.80793 0 0.106019)
(3.70755 -4.41126e-16 -2.39145)
(3.3232 2.68539e-17 -7.01843)
(11.3654 -8.54395e-16 -12.387)
(29.1706 -8.89705e-16 -18.6001)
(43.3454 3.66313e-17 -19.3753)
(29.4116 -1.10092e-15 -7.08542)
(-15.9135 0 14.355)
(-59.4315 0 37.1532)
(-80.9075 8.9282e-16 53.539)
(-250.143 0 176.453)
(-476.898 0 204.974)
(389.688 0 -346.556)
(769.595 0 -381.043)
(42.8298 0 36.6783)
(10.1987 -5.89257e-15 -5.63138)
(6.23763 0 16.1184)
(-76.5007 -5.30942e-16 46.0865)
(-16.2416 0 4.39014)
(60.6597 -1.45816e-17 -51.6021)
(238.158 -1.74269e-15 -165.099)
(362.009 0 -219.688)
(267.987 0 -141.454)
(137.707 0 -55.1537)
(-19.3019 0 39.6289)
(-176.986 -1.06939e-15 118.546)
(-210.799 0 123.475)
(-199.166 0 110.66)
(-162.61 0 87.0544)
(-120.226 0 64.631)
(-87.445 0 44.1194)
(-37.0973 0 14.5971)
(-5.54959 0 1.08917)
(-14.7149 0 10.1156)
(-24.9602 -6.20936e-17 16.3338)
(-18.0261 0 8.16814)
(35.8001 0 -28.2648)
(95.6299 0 -60.1756)
(84.1725 8.68466e-16 -44.4363)
(7.73597 0 3.67509)
(-40.5523 -1.38878e-16 27.1397)
(-36.0887 0 19.4455)
(-20.707 -1.19416e-19 10.0255)
(-8.82873 0 3.93429)
(-3.0166 8.45356e-17 1.14858)
(4.46335 0 -3.01531)
(7.91735 0 -4.95633)
(12.777 0 -7.62846)
(11.4324 -3.20243e-16 -6.47211)
(7.29289 3.91221e-16 -3.7982)
(0.0645448 -2.81059e-16 0.853002)
(-12.0302 -2.90712e-16 7.61549)
(-4.56043 0 1.38382)
(-5.25664 5.96611e-19 1.27489)
(-6.00847 0 1.15538)
(-6.37213 0 1.27497)
(-5.88862 -3.39671e-19 1.63949)
(-5.03625 -1.36091e-19 2.01177)
(-5.12479 -4.28573e-19 2.07811)
(-6.65522 2.15347e-18 1.84042)
(-7.97776 0 1.7826)
(-6.73333 4.38625e-20 2.21316)
(-3.38095 1.17592e-18 2.62489)
(-1.91836 0 2.23876)
(-4.87811 0 1.369)
(-8.49735 0 1.45035)
(-6.70093 0 2.75327)
(-0.449608 9.76391e-19 2.87437)
(2.11341 -5.95954e-19 -0.110466)
(-2.26499 -6.05832e-18 -3.10986)
(-5.94996 -5.17415e-18 -0.73272)
(-2.37845 0 5.46868)
(2.40518 -5.67813e-18 5.93068)
(-1.40043 1.94813e-18 -3.83537)
(-10.2844 0 -13.8806)
(-7.81898 5.32463e-18 -8.859)
(11.3887 8.15489e-18 8.85287)
(30.0704 2.20938e-17 20.0177)
(15.914 0 1.10136)
(-25.5927 0 -30.9493)
(-32.1569 -3.51537e-17 -20.7569)
(-9.79755 1.93229e-18 -2.69872)
(7.2323 3.14934e-17 5.5289)
(6.81857 0 3.1528)
(0.0191512 -2.60508e-17 -1.85955)
(-2.69803 0 -2.69239)
(-0.271803 0 -0.783461)
(2.2425 -2.04133e-18 0.2493)
(2.01 0 -0.562642)
(0.662695 5.27049e-18 -1.52556)
(0.477116 -4.66888e-19 -1.48691)
(1.40034 5.04917e-18 -0.965813)
(2.09124 0 -0.767211)
(1.91409 1.67448e-19 -0.910702)
(1.26806 0 -0.946008)
(0.683264 0 -0.687536)
(0.404728 0 -0.298128)
(0.458643 0 0.048834)
(0.596766 0 0.299633)
(0.326312 -5.13225e-18 0.404509)
(-0.512843 0 0.334267)
(-1.14643 0 0.198098)
(-0.488535 -1.44086e-17 0.157416)
(1.28497 0 0.12929)
(2.40469 8.25268e-18 -0.212421)
(1.61566 2.30121e-17 -0.948684)
(0.31683 -1.53602e-17 -1.58229)
(1.08142 0 -1.62836)
(3.97654 -5.70043e-17 -1.0255)
(5.40567 2.31177e-17 -0.260848)
(2.15057 0 0.26245)
(-3.70994 0 0.742513)
(-6.24541 0 1.68665)
(-3.04986 1.31768e-16 2.75403)
(1.2593 0 2.15499)
(-0.436259 0 -1.55638)
(-3.18492 -2.34133e-16 -2.41935)
(-4.4335 -2.90585e-16 -3.31786)
(-0.376799 0 -1.17722)
(5.22792 0 0.52401)
(6.84505 0 -0.239119)
(4.16002 0 -3.18317)
(5.07886 2.1078e-17 -8.59861)
(14.712 8.0108e-16 -14.8473)
(33.5566 0 -21.5535)
(46.2273 0 -20.6504)
(26.7899 1.03178e-15 -3.69435)
(-24.8638 0 20.8865)
(-58.8952 2.9711e-16 37.4894)
(-37.7404 9.17657e-16 35.6717)
(-272.323 0 201.763)
(-394.757 0 135.469)
(242.929 0 -310.1)
(832.619 0 -402.244)
(96.6761 0 34.3887)
(17.7305 2.74477e-15 -7.80587)
(3.879 0 22.6569)
(-80.7316 9.63397e-16 47.8013)
(-10.6723 0 -2.9931)
(92.5269 -1.42057e-17 -78.4872)
(291.514 1.9895e-17 -205.64)
(404.74 0 -244.724)
(267.709 2.26378e-15 -133.609)
(122.545 0 -37.1037)
(-49.4324 0 49.9703)
(-203.358 1.99269e-15 138.332)
(-224.689 0 131.696)
(-209.002 0 114.968)
(-173.969 0 91.2843)
(-134.658 0 70.8264)
(-97.9809 0 47.6294)
(-42.6032 0 15.446)
(-7.65004 0 1.79375)
(-17.2916 0 12.1368)
(-27.3168 5.80107e-17 17.7957)
(-15.2058 0 4.97389)
(47.0382 0 -37.6405)
(109.137 0 -69.0406)
(89.0048 -8.13313e-16 -44.9151)
(4.32225 -4.92459e-16 8.71062)
(-44.7124 1.26505e-16 30.4664)
(-39.0054 -3.59448e-16 20.5569)
(-22.5762 -1.11112e-19 10.4464)
(-9.07573 2.61743e-17 3.6626)
(-2.69822 -1.57821e-16 0.676108)
(5.76358 0 -4.01586)
(9.22728 1.554e-16 -5.89369)
(14.1027 -1.03361e-16 -8.47277)
(11.9706 0 -6.64136)
(6.73199 -1.81979e-16 -3.22137)
(-1.36034 1.31645e-16 2.08822)
(-14.8374 2.71355e-16 9.47085)
(-4.49588 0 1.38926)
(-5.226 -2.76513e-19 1.33178)
(-5.87733 0 1.27778)
(-6.07149 0 1.39637)
(-5.48769 3.19849e-19 1.70564)
(-4.70975 1.28121e-19 2.0501)
(-5.01249 4.03398e-19 2.16264)
(-6.74048 -1.80669e-18 2.00237)
(-8.18045 0 1.98072)
(-7.1673 1.10644e-18 2.38927)
(-4.31798 -1.86094e-18 2.77416)
(-3.26448 0 2.48558)
(-5.97837 -4.14864e-18 1.87369)
(-9.04347 0 2.06937)
(-7.60798 3.01985e-18 3.00896)
(-2.70028 5.74745e-18 2.71044)
(-0.374342 4.15336e-19 0.198546)
(-2.63863 5.70259e-18 -1.71494)
(-4.61574 9.23432e-18 0.312504)
(-3.16474 0 4.02606)
(-2.07358 5.34526e-18 3.28608)
(-5.11099 0 -3.02766)
(-7.84329 0 -7.74978)
(-2.15787 -6.16042e-18 -4.23664)
(10.4315 -8.3829e-18 2.85191)
(15.1717 0 0.851463)
(-2.81686 0 -16.9787)
(-27.382 0 -30.7544)
(-24.0817 -2.81404e-18 -16.421)
(-3.71749 2.86555e-17 1.02702)
(6.81864 -6.85059e-18 4.26959)
(4.5883 -1.18747e-17 1.33404)
(-1.25796 1.85313e-17 -2.56525)
(-2.33089 2.76294e-18 -2.4896)
(0.370812 -5.55787e-18 -0.458837)
(2.27158 1.31735e-18 0.148657)
(1.72201 0 -0.8504)
(0.602649 -4.95689e-18 -1.68767)
(0.664503 2.04379e-18 -1.55013)
(1.56811 -4.74801e-18 -1.07203)
(2.13376 0 -0.930684)
(1.92339 -1.54668e-18 -1.05483)
(1.33199 -1.87916e-18 -1.02416)
(0.788184 6.17824e-20 -0.71421)
(0.500291 2.59623e-18 -0.302812)
(0.524175 0 0.0507751)
(0.633294 0 0.298858)
(0.340802 -3.46997e-19 0.39186)
(-0.49434 0 0.308276)
(-1.08354 0 0.15985)
(-0.375603 -1.37641e-17 0.0872345)
(1.40071 1.12542e-17 -0.00461276)
(2.49267 -7.75074e-18 -0.404239)
(1.72834 -1.97022e-19 -1.1315)
(0.514406 1.31601e-18 -1.70629)
(1.35112 0 -1.6777)
(4.21012 0 -1.0114)
(5.47653 -4.48238e-17 -0.187682)
(2.03155 0 0.437274)
(-3.93058 0 1.09562)
(-6.53101 -7.62834e-17 2.21482)
(-3.5555 0 3.27644)
(0.402279 0 2.45584)
(-0.930214 -3.02308e-16 -1.03819)
(-3.12799 2.0114e-16 -1.83301)
(-4.08624 2.93633e-16 -3.01309)
(0.0932761 0 -1.1131)
(5.4775 -1.25535e-16 0.45259)
(7.02038 0 -0.626688)
(4.80528 0 -4.14643)
(7.028 -3.88993e-17 -10.4806)
(18.1703 0 -17.5899)
(37.7285 0 -24.4447)
(48.2812 0 -21.122)
(22.735 0 1.17534)
(-34.0438 0 27.0122)
(-52.0455 -2.78228e-16 31.8123)
(25.5594 4.88549e-17 8.25299)
(-303.556 -8.58316e-16 230.552)
(-245.46 -4.28816e-16 32.6544)
(-31.5121 0 -201.606)
(850.096 0 -406.694)
(153.935 0 33.4328)
(28.1638 0 -9.77452)
(3.51992 0 29.1388)
(-82.7368 -3.61422e-17 47.7875)
(-2.10769 0 -15.0842)
(129.11 1.23912e-15 -110.377)
(342.852 2.81376e-17 -245.834)
(434.07 0 -260.134)
(250.565 -2.11656e-15 -113.806)
(102.91 0 -16.0522)
(-61.2932 -4.02279e-16 87.3868)
(-221.264 -6.86725e-18 154.255)
(-231.075 0 135.324)
(-213.353 0 116.143)
(-181.358 0 93.3119)
(-147.542 0 76.0278)
(-108.124 -1.03904e-15 50.5347)
(-48.3707 0 16.057)
(-10.3178 0 2.71056)
(-19.7757 6.15112e-16 14.1209)
(-28.6813 0 18.5426)
(-10.9636 4.95545e-16 0.549295)
(58.254 -4.17911e-16 -47.4452)
(120.155 0 -76.3888)
(91.2988 1.51936e-15 -43.4303)
(1.06904 -6.60789e-19 13.9004)
(-47.6666 -2.34449e-16 33.2681)
(-41.2036 3.35623e-16 21.1521)
(-24.1358 2.08937e-16 10.5978)
(-9.17332 -2.4437e-17 3.231)
(-2.36402 7.36522e-17 0.149909)
(6.87628 1.11541e-16 -4.91987)
(10.1779 -1.45069e-16 -6.60286)
(14.8785 9.64862e-17 -8.94985)
(11.9609 2.78361e-16 -6.4596)
(5.78386 1.6703e-16 -2.38974)
(-2.91064 0 3.45035)
(-17.5815 0 11.3278)
(-4.43401 0 1.48558)
(-5.16821 -1.87802e-19 1.44807)
(-5.72685 0 1.43976)
(-5.75568 0 1.55318)
(-5.06307 0 1.80135)
(-4.30002 0 2.1027)
(-4.67109 -3.70494e-19 2.23863)
(-6.40807 5.09092e-19 2.1313)
(-7.84299 1.72979e-19 2.1067)
(-7.03718 -2.05159e-18 2.44606)
(-4.68075 1.74936e-18 2.79446)
(-4.019 0 2.6104)
(-6.60627 3.89983e-18 2.20326)
(-9.41835 0 2.46644)
(-8.51615 -2.83888e-18 3.20682)
(-4.7261 -4.19714e-18 2.82857)
(-2.46524 0 0.834745)
(-3.22989 0 -0.516021)
(-4.34099 -4.10281e-18 0.855763)
(-4.33909 0 3.12077)
(-4.86879 0 2.71698)
(-6.57784 -7.718e-18 -0.532482)
(-6.21258 0 -2.85941)
(-0.860827 0 -2.29444)
(5.6999 4.20017e-18 -2.69684)
(3.75007 0 -9.94524)
(-10.9197 0 -22.2605)
(-22.6533 0 -24.5655)
(-15.178 1.25332e-17 -10.3923)
(0.0352308 0 2.44349)
(5.71595 -4.55527e-18 3.3925)
(2.13668 1.62043e-18 -0.576074)
(-1.89549 -7.07018e-18 -2.75835)
(-1.6607 -2.59674e-18 -1.89709)
(0.94461 8.97318e-18 -0.0907229)
(2.05265 5.66296e-19 -0.072748)
(1.34649 0 -1.10792)
(0.516989 0 -1.78956)
(0.795807 2.27304e-18 -1.57702)
(1.64752 -3.06388e-18 -1.16754)
(2.10026 0 -1.07967)
(1.88683 0 -1.172)
(1.36815 1.38285e-19 -1.0767)
(0.871539 -5.80173e-20 -0.728446)
(0.58166 -2.43805e-18 -0.306784)
(0.587912 -6.37444e-18 0.0488158)
(0.680818 0 0.294412)
(0.374751 -2.56487e-19 0.375651)
(-0.453899 0 0.275922)
(-1.00388 0 0.110792)
(-0.258518 1.29187e-17 0.0057529)
(1.50557 -1.0562e-17 -0.141732)
(2.5566 0 -0.586871)
(1.80036 -2.00921e-17 -1.30195)
(0.654467 1.21926e-18 -1.81861)
(1.55521 0 -1.70783)
(4.38117 0 -0.967569)
(5.50575 4.47559e-17 -0.0774154)
(1.91378 0 0.647038)
(-4.10059 0 1.46695)
(-6.73923 1.43977e-16 2.73245)
(-3.98815 0 3.78201)
(-0.380373 0 2.79505)
(-1.45249 5.56719e-16 -0.518385)
(-3.44872 -1.88514e-16 -1.77172)
(-3.81453 -1.42145e-16 -2.75386)
(0.552544 0 -1.07788)
(5.80477 1.17615e-16 0.324246)
(7.36788 0 -1.12576)
(5.70129 3.48799e-16 -5.34945)
(9.23204 1.79327e-17 -12.7283)
(21.7974 0 -20.6376)
(41.722 0 -27.2474)
(49.5774 1.84223e-17 -20.7228)
(17.5203 -8.10086e-16 7.40706)
(-41.8106 0 32.3214)
(-36.5978 0 17.6867)
(106.292 -1.75159e-15 -26.0712)
(-349.977 8.03215e-16 264.595)
(-80.316 7.78092e-16 -68.0828)
(-446.136 0 -10.4982)
(810.604 0 -395.457)
(208.299 0 35.6538)
(41.1589 0 -11.2405)
(6.15933 0 35.168)
(-82.7714 -4.19579e-17 45.974)
(10.898 0 -29.9664)
(169.202 0 -146.187)
(389.516 3.76847e-17 -283.755)
(448.262 0 -264.249)
(219.074 -1.94923e-15 -83.6195)
(90.4668 0 2.96004)
(-69.5642 3.7596e-16 118.401)
(-235.026 -7.14244e-18 166.281)
(-231.87 0 135.253)
(-214.287 0 115.313)
(-186.161 0 93.9797)
(-158.639 0 80.1566)
(-118.513 7.45298e-18 53.1784)
(-54.7136 -4.85038e-16 16.5858)
(-13.5967 -3.57088e-16 3.8343)
(-22.2042 -5.74507e-16 16.0428)
(-29.1633 0 18.5831)
(-5.71478 -4.62781e-16 -4.91527)
(68.9546 3.90258e-16 -57.3197)
(128.583 0 -82.0539)
(91.6778 -7.09499e-16 -40.2962)
(-1.43714 8.59906e-16 19.1101)
(-49.7142 1.08606e-16 35.4643)
(-42.8617 0 21.4403)
(-25.5055 -1.95066e-16 10.5362)
(-9.23961 0 2.70256)
(-2.12525 0 -0.374593)
(7.67375 -1.04121e-16 -5.69425)
(10.688 0 -7.09)
(15.1159 0 -9.14799)
(11.5452 -2.59819e-16 -5.99265)
(4.69595 -1.55899e-16 -1.41348)
(-4.34043 1.17141e-16 4.8213)
(-20.1309 -2.35071e-16 13.1129)
(-4.3881 0 1.5891)
(-5.10453 1.76508e-19 1.56532)
(-5.59128 7.5845e-20 1.57249)
(-5.48549 0 1.67719)
(-4.72037 0 1.87888)
(-3.99901 0 2.12674)
(-4.40096 3.48156e-19 2.25842)
(-6.01532 0 2.19978)
(-7.28689 -1.62506e-19 2.18349)
(-6.56949 0 2.43626)
(-4.5853 0 2.71084)
(-4.16847 -9.86446e-19 2.60694)
(-6.57891 0 2.38014)
(-9.26388 -1.79434e-18 2.70324)
(-9.00979 -1.55801e-18 3.34112)