/*--------------------------------*- C++ -*----------------------------------*\
| =========                 |                                                 |
| \\      /  F ield         | OpenFOAM: The Open Source CFD Toolbox           |
|  \\    /   O peration     | Version:  2412                                  |
|   \\  /    A nd           | Website:  www.openfoam.com                      |
|    \\/     M anipulation  |                                                 |
\*---------------------------------------------------------------------------*/
FoamFile
{
    version     2.0;
    format      ascii;
    arch        "LSB;label=32;scalar=64";
    class       volVectorField;
    location    "0.075";
    object      ddtCorrDdt0(U);
}
// * * * * * * * * * * * * * * * * * * * * * * * * * * * * * * * * * * * * * //

dimensions      [0 1 -2 0 0 0 0];

internalField   nonuniform List<vector> 
12600
(
(153.326 1.17526e-18 3.6165)
(135.715 2.99122e-18 -10.3143)
(110.002 4.34111e-18 -13.2196)
(93.7871 0 -13.4854)
(83.1439 5.4211e-18 -13.1452)
(75.8312 5.7906e-18 -12.5847)
(70.9781 0 -11.7761)
(67.5166 0 -10.8938)
(64.1528 -2.61149e-17 -10.3084)
(60.3623 0 -10.0649)
(56.7351 1.34037e-17 -9.88518)
(53.9646 1.31853e-17 -9.52547)
(51.8632 -1.29001e-17 -9.03971)
(49.8617 0 -8.66178)
(47.744 -1.23511e-17 -8.41748)
(45.8649 0 -8.15988)
(44.6212 4.69907e-17 -7.77705)
(43.8606 0 -7.26434)
(42.897 -2.28319e-17 -7.16866)
(42.2027 -2.27086e-17 -7.14588)
(41.2126 2.25597e-17 -6.99456)
(39.6457 -3.47384e-21 -6.8748)
(38.7243 0 -6.81145)
(37.7224 -4.42655e-17 -6.7033)
(36.1389 0 -6.48824)
(35.4593 0 -6.56768)
(35.0136 -4.15448e-17 -6.3985)
(33.599 0 -6.00453)
(33.9651 -3.22122e-20 -6.22334)
(33.1802 4.07764e-17 -5.92718)
(30.7531 3.7583e-17 -5.6826)
(32.0876 3.72357e-17 -6.09925)
(30.1363 -3.78585e-17 -5.5042)
(28.9292 -6.35228e-17 -5.55438)
(31.3553 -7.07559e-17 -5.55433)
(27.7665 6.61854e-17 -5.07367)
(28.7937 0 -5.39817)
(28.3743 -6.78394e-17 -5.0704)
(25.9362 0 -5.20292)
(27.7816 5.97351e-17 -4.92875)
(25.6542 0 -4.87721)
(26.7498 2.86065e-20 -4.72135)
(25.0501 0 -4.64872)
(24.8536 -1.66239e-21 -4.71052)
(24.5506 1.04754e-16 -4.44843)
(23.345 -8.38146e-17 -4.56935)
(24.393 9.80496e-17 -4.21437)
(23.0704 0 -4.24624)
(23.206 0 -4.11521)
(22.0551 7.79307e-17 -4.17539)
(22.1932 1.61998e-16 -4.08158)
(21.5516 1.47944e-16 -3.98241)
(21.7369 2.52854e-20 -3.86828)
(21.1071 1.43259e-16 -3.79572)
(20.7869 0 -3.81762)
(20.2057 -1.36663e-16 -3.75087)
(19.9364 -1.26014e-16 -3.74699)
(19.9976 -1.29864e-16 -3.54732)
(19.4917 0 -3.54516)
(19.2504 0 -3.46978)
(18.9435 0 -3.48659)
(18.7084 2.23561e-16 -3.39259)
(18.3248 0 -3.38448)
(18.2876 0 -3.2673)
(17.8232 -3.7973e-16 -3.2713)
(17.6881 0 -3.19805)
(17.4536 0 -3.18548)
(17.3548 0 -3.11185)
(16.9287 3.3518e-16 -3.11752)
(16.664 -3.31832e-16 -3.08836)
(16.4977 -3.06484e-16 -3.05467)
(16.4897 -2.95293e-20 -2.96196)
(16.2784 2.8094e-16 -2.92936)
(16.1812 0 -2.89228)
(15.9468 -2.62887e-16 -2.89079)
(15.7282 0 -2.87063)
(15.4629 0 -2.86953)
(15.474 0 -2.81373)
(15.3111 -5.01802e-20 -2.78105)
(15.0084 -4.43789e-16 -2.78486)
(15.1066 -4.20817e-16 -2.73883)
(15.0547 4.33535e-16 -2.69162)
(14.6113 3.9713e-16 -2.72522)
(14.7257 0 -2.67713)
(14.6325 0 -2.64474)
(14.332 -7.05026e-16 -2.6507)
(14.4402 1.36071e-15 -2.60728)
(14.2738 -1.34514e-15 -2.59383)
(14.0921 -6.2623e-16 -2.59865)
(14.0287 0 -2.5758)
(13.9202 1.19358e-15 -2.56826)
(13.8635 -5.90485e-16 -2.53024)
(13.7147 5.61417e-16 -2.534)
(13.6279 -1.06963e-15 -2.5038)
(13.6398 0 -2.48521)
(13.4591 0 -2.45891)
(13.4042 0 -2.45852)
(13.267 0 -2.42716)
(13.2523 0 -2.4147)
(12.9881 0 -2.39935)
(13.0292 7.84475e-16 -2.3802)
(12.872 1.53373e-15 -2.35108)
(12.7673 1.41538e-15 -2.35803)
(12.652 0 -2.34102)
(12.6936 0 -2.32332)
(12.3745 0 -2.30077)
(12.4062 1.15152e-15 -2.3095)
(12.0178 2.22263e-15 -2.22261)
(12.0013 -1.04938e-15 -2.22767)
(11.6747 0 -2.17317)
(11.5713 1.87361e-15 -2.14422)
(11.5471 0 -2.14123)
(11.1345 1.68825e-15 -2.07102)
(11.2937 -1.63449e-15 -2.0956)
(10.7034 1.57185e-15 -1.98656)
(10.3063 1.50498e-15 -1.91024)
(10.4796 -1.45784e-15 -1.95555)
(8.47276 8.9583e-21 -1.56179)
(9.52899 -1.33253e-15 -1.78133)
(4.02902 0 -0.728047)
(336.192 -1.19317e-18 5.7116)
(296.983 0 -21.8774)
(264.129 -4.40442e-18 -28.2771)
(237.338 0 -30.7964)
(216.977 -5.50102e-18 -31.4651)
(201.531 -1.19522e-17 -31.0161)
(189.833 -6.23596e-18 -29.7813)
(180.249 0 -28.4253)
(171.306 -2.74782e-20 -27.6508)
(162.674 -1.35353e-17 -27.3666)
(154.998 1.35371e-17 -26.9865)
(148.729 1.32919e-17 -26.1507)
(143.375 -1.3058e-17 -25.0774)
(138.304 1.27738e-17 -24.2325)
(133.453 2.50825e-17 -23.6155)
(129.182 0 -23.0172)
(125.761 -1.69155e-20 -22.2134)
(122.811 2.33869e-17 -21.256)
(119.599 2.31681e-17 -20.95)
(117.232 0 -20.8755)
(114.626 0 -20.4226)
(111.059 2.25904e-17 -20.1907)
(108.51 0 -19.9432)
(106.104 2.24509e-17 -19.6168)
(103.046 -4.40219e-17 -19.0132)
(100.913 0 -18.9849)
(99.2469 4.21151e-17 -18.6136)
(96.5056 0 -17.6272)
(95.5203 -3.9451e-17 -17.9852)
(93.6533 -8.27033e-17 -17.4637)
(89.9684 -7.61704e-17 -16.6071)
(90.0927 -3.76905e-17 -17.5373)
(87.2462 3.83102e-17 -16.2577)
(84.8653 1.28464e-16 -15.9443)
(86.2234 1.43012e-16 -16.4106)
(81.7675 0 -14.9489)
(81.6386 0 -15.6066)
(80.3211 -4.86728e-20 -15.1313)
(77.0295 0 -14.8214)
(77.8956 -6.03054e-17 -14.6931)
(74.9835 0 -14.1748)
(75.1538 -1.06116e-16 -14.0783)
(72.6308 0 -13.6584)
(71.6216 -9.25635e-17 -13.8318)
(70.5353 0 -13.3292)
(68.6119 8.43958e-17 -13.2681)
(68.8849 0 -12.7856)
(66.8379 0 -12.6231)
(66.2346 -9.04028e-17 -12.4076)
(64.3915 0 -12.3594)
(63.8711 0 -12.1794)
(62.5783 0 -11.8584)
(62.1016 -1.48839e-16 -11.6436)
(60.8244 -2.87227e-16 -11.4162)
(59.8884 0 -11.411)
(58.728 0 -11.1838)
(57.8891 1.26122e-16 -11.1093)
(57.3906 1.29857e-16 -10.727)
(56.3143 0 -10.6483)
(55.5379 0 -10.4532)
(54.7146 0 -10.4266)
(53.9935 0 -10.1814)
(53.1108 2.03766e-16 -10.1082)
(52.5998 -2.106e-16 -9.8787)
(51.6619 3.77531e-16 -9.83277)
(51.0937 0 -9.64719)
(50.4269 0 -9.56622)
(49.9224 0 -9.39126)
(49.0949 -2.19273e-20 -9.34934)
(48.4572 3.28655e-16 -9.25137)
(47.9284 3.03273e-16 -9.16039)
(47.5765 -6.04135e-16 -8.96397)
(47.017 -5.46141e-20 -8.86347)
(46.5961 2.75827e-16 -8.76386)
(46.0501 2.59145e-16 -8.71969)
(45.5425 0 -8.63701)
(44.9909 0 -8.59133)
(44.7296 0 -8.47613)
(44.3051 -4.58421e-16 -8.39691)
(43.7554 0 -8.35308)
(43.6185 0 -8.25647)
(43.3416 -4.24304e-16 -8.16094)
(42.681 -3.8826e-16 -8.1636)
(42.5799 0 -8.06965)
(42.291 0 -8.0053)
(41.7842 0 -7.96377)
(41.7056 -1.32461e-15 -7.88202)
(41.3374 3.33658e-20 -7.83513)
(40.9943 -6.08322e-16 -7.80717)
(40.7215 6.07039e-16 -7.74643)
(40.4835 -1.1569e-15 -7.71414)
(40.1996 -5.71721e-16 -7.62754)
(39.958 -1.08582e-15 -7.61853)
(39.613 0 -7.53566)
(39.5664 0 -7.5048)
(39.0909 0 -7.41743)
(38.9999 0 -7.41245)
(38.5237 -8.67406e-16 -7.31668)
(38.4887 0 -7.29648)
(37.8615 0 -7.21466)
(37.8675 7.52254e-16 -7.18148)
(37.358 -7.346e-16 -7.09395)
(37.2406 -2.70894e-15 -7.08998)
(36.7817 1.29873e-15 -7.01044)
(36.8539 0 -6.99537)
(36.0545 0 -6.87901)
(36.1038 0 -6.88786)
(34.999 -1.05855e-15 -6.6577)
(34.9134 9.98693e-16 -6.65906)
(33.9977 0 -6.47924)
(33.6158 -3.56011e-15 -6.40991)
(33.4247 -1.71439e-15 -6.36685)
(32.3258 -3.20278e-15 -6.16793)
(32.6405 0 -6.22258)
(30.9866 0 -5.89186)
(29.7856 1.42442e-15 -5.68016)
(30.3948 0 -5.77624)
(24.2345 1.31761e-15 -4.60527)
(27.9818 1.25862e-15 -5.22598)
(12.1432 0 -2.19758)
(429.116 0 4.71319)
(394.842 0 -16.5232)
(367.541 -4.758e-18 -27.0617)
(341.1 0 -33.614)
(319.095 0 -37.0472)
(301.189 5.57062e-18 -38.3291)
(286.555 5.91187e-18 -38.409)
(273.692 0 -38.3388)
(261.562 -8.82075e-21 -38.6572)
(250.231 1.28313e-17 -38.9956)
(240.308 -2.5575e-17 -38.7976)
(231.937 -1.26003e-17 -38.0195)
(224.429 1.29717e-20 -37.029)
(217.261 -1.21088e-17 -36.195)
(210.511 -1.18924e-17 -35.4767)
(204.54 1.15638e-17 -34.7806)
(199.529 -2.25797e-17 -33.9408)
(194.946 -2.21677e-17 -33.1305)
(190.132 0 -32.6782)
(186.481 0 -32.1171)
(182.402 2.1737e-17 -32.7051)
(177.618 2.14166e-17 -31.9421)
(173.902 0 -31.475)
(170.383 0 -30.9703)
(166.126 4.17178e-17 -30.1322)
(162.817 0 -29.7554)
(160.145 -7.98071e-17 -29.3746)
(156.248 3.84084e-17 -28.1774)
(154.131 0 -28.2672)
(151.361 3.92312e-17 -27.992)
(146.603 3.6113e-17 -26.6183)
(145.769 0 -27.4265)
(142.144 -3.65235e-17 -26.3365)
(138.747 -6.08146e-17 -25.2082)
(139.186 -2.44307e-19 -26.2528)
(133.978 0 -24.3993)
(132.877 0 -24.6608)
(130.759 6.49512e-17 -24.7197)
(126.792 0 -23.4523)
(126.729 0 -23.8489)
(123.154 0 -22.8763)
(122.501 0 -22.8641)
(119.257 0 -22.2899)
(117.532 0 -22.2268)
(115.734 0 -21.9218)
(113.212 -7.99497e-17 -21.2788)
(112.722 9.34594e-17 -21.1511)
(110.08 0 -20.6237)
(108.79 8.55294e-17 -20.4526)
(106.353 0 -20.1617)
(105.211 0 -19.9308)
(103.331 -1.40527e-16 -19.4623)
(102.241 0 -19.1841)
(100.378 1.35786e-16 -18.8839)
(98.8921 -1.29059e-16 -18.7212)
(97.1932 0 -18.4112)
(95.8365 -1.19212e-16 -18.1563)
(94.7979 0 -17.8261)
(93.2243 0 -17.5701)
(91.9434 0 -17.338)
(90.6532 -2.03397e-16 -17.1754)
(89.4645 -2.10798e-16 -16.8704)
(88.1342 1.93534e-20 -16.6628)
(87.1665 3.97689e-16 -16.4432)
(85.8083 -7.5679e-20 -16.277)
(84.8255 0 -16.0419)
(83.7639 0 -15.8554)
(82.8697 3.35477e-16 -15.6413)
(81.6832 -2.53745e-20 -15.4945)
(80.6931 0 -15.3333)
(79.8243 0 -15.1832)
(79.1375 2.84836e-16 -14.9622)
(78.2595 -1.83657e-20 -14.7906)
(77.53 -2.05865e-20 -14.6508)
(76.6961 0 -14.5335)
(75.9123 0 -14.3855)
(75.0949 4.55676e-16 -14.2662)
(74.5679 -4.5068e-16 -14.1312)
(73.8963 0 -14.0175)
(73.1177 0 -13.8969)
(72.7492 0 -13.779)
(72.25 0 -13.6743)
(71.3959 0 -13.5781)
(71.0778 0 -13.4737)
(70.5931 0 -13.4011)
(69.8928 0 -13.2742)
(69.6261 1.24543e-15 -13.1886)
(69.057 6.14741e-16 -13.1075)
(68.5612 5.7174e-16 -13.0175)
(68.0751 -5.70417e-16 -12.9289)
(67.7087 1.08696e-15 -12.8646)
(67.1882 5.3701e-16 -12.7474)
(66.8587 5.0983e-16 -12.7129)
(66.2365 0 -12.58)
(66.1361 0 -12.5552)
(65.335 0 -12.3977)
(65.2288 0 -12.3892)
(64.3615 8.13764e-16 -12.2207)
(64.3394 0 -12.2084)
(63.2804 0 -12.0309)
(63.2874 -7.05329e-16 -12.0016)
(62.34 0 -11.8478)
(62.2223 1.26945e-15 -11.8166)
(61.3627 -1.21705e-15 -11.6607)
(61.4102 0 -11.6536)
(60.1657 0 -11.4289)
(60.1283 0 -11.4126)
(58.4073 -9.91246e-16 -11.0723)
(58.1175 0 -11.0419)
(56.6284 8.84123e-16 -10.7327)
(55.8873 5.79417e-20 -10.6218)
(55.3872 1.60448e-15 -10.5014)
(53.6292 2.99699e-15 -10.1855)
(53.9014 0 -10.2307)
(51.3029 -1.39271e-15 -9.69566)
(49.1287 -1.33237e-15 -9.33737)
(50.3591 -1.28956e-15 -9.48534)
(39.7991 0 -7.51856)
(46.7488 -1.17684e-15 -8.70345)
(21.0671 0 -3.69631)
(474.65 0 7.61636)
(452.295 0 -9.94003)
(432.822 4.5025e-18 -22.5781)
(411.752 0 -31.412)
(392.653 -5.38616e-18 -37.0025)
(375.964 1.10277e-17 -40.1567)
(361.248 0 -42.0667)
(347.507 -1.17338e-17 -43.7394)
(334.383 1.19317e-17 -45.4055)
(322.292 1.20206e-17 -46.6156)
(311.691 1.20571e-17 -46.9402)
(302.456 -1.18212e-17 -46.6081)
(293.877 1.17003e-17 -46.0866)
(285.605 -2.30299e-17 -45.5622)
(277.835 0 -44.9699)
(270.942 -2.18971e-17 -44.2244)
(264.986 0 -43.3965)
(259.367 0 -42.7155)
(253.657 0 -42.3507)
(248.709 2.08831e-17 -41.6411)
(243.624 1.03323e-19 -43.2425)
(238.522 -2.4163e-20 -42.0201)
(233.845 2.01175e-17 -41.4828)
(229.579 0 -40.867)
(224.489 0 -39.9573)
(220.301 0 -39.3299)
(216.893 7.5463e-17 -39.0061)
(212.139 1.6573e-19 -37.8278)
(209.123 0 -37.5962)
(205.693 0 -37.6247)
(200.121 0 -36.0321)
(198.517 0 -36.4325)
(194.307 6.9123e-17 -35.843)
(190.084 0 -34.0262)
(189.784 -6.37622e-17 -35.2433)
(183.971 0 -33.6114)
(182.086 0 -33.1374)
(179.308 -6.11939e-17 -33.83)
(174.789 0 -31.9016)
(173.965 0 -32.4629)
(169.814 4.82983e-17 -31.4329)
(168.517 -9.4762e-17 -31.1547)
(164.617 0 -30.8346)
(162.344 -8.25946e-17 -30.2061)
(159.913 0 -30.2623)
(156.886 1.51249e-16 -29.0735)
(155.741 -1.36164e-19 -29.1945)
(152.588 0 -28.3998)
(150.702 0 -28.2334)
(147.737 -6.98924e-17 -27.8079)
(146.058 -1.4519e-16 -27.4666)
(143.649 2.65473e-16 -26.9521)
(142.035 0 -26.5123)
(139.639 1.28123e-16 -26.2445)
(137.674 1.21827e-16 -25.8691)
(135.474 1.22129e-16 -25.5989)
(133.664 1.12497e-16 -25.1129)
(132.139 0 -24.8541)
(130.129 0 -24.3928)
(128.381 2.08935e-16 -24.1881)
(126.672 3.83714e-16 -23.8696)
(125.045 1.98817e-16 -23.5702)
(123.312 2.95947e-20 -23.2048)
(121.928 -1.87474e-16 -22.9975)
(120.19 -1.67897e-16 -22.699)
(118.819 0 -22.4501)
(117.394 0 -22.1616)
(116.135 -3.16145e-16 -21.9274)
(114.615 -5.90664e-16 -21.6784)
(113.292 0 -21.4774)
(112.109 -2.69204e-16 -21.2522)
(111.109 -2.68227e-16 -21.0033)
(109.934 -2.46284e-16 -20.7585)
(108.911 -4.89529e-16 -20.5907)
(107.802 0 -20.4099)
(106.748 0 -20.2193)
(105.671 -4.28798e-16 -20.0408)
(104.891 8.48024e-16 -19.8699)
(103.981 4.05993e-16 -19.713)
(102.973 0 -19.5466)
(102.38 0 -19.389)
(101.66 0 -19.2655)
(100.604 0 -19.1048)
(100.07 0 -18.9696)
(99.3864 0 -18.8766)
(98.4812 6.07019e-16 -18.6871)
(98.025 -7.02054e-20 -18.5786)
(97.2438 -5.77294e-16 -18.468)
(96.5841 0 -18.3277)
(95.8702 -5.35485e-16 -18.211)
(95.3645 -5.10159e-16 -18.1146)
(94.5873 0 -17.9529)
(94.1595 4.78364e-16 -17.8993)
(93.2264 9.10122e-16 -17.7057)
(93.0722 0 -17.6784)
(91.8928 0 -17.4437)
(91.7843 0 -17.4372)
(90.4516 7.62859e-16 -17.18)
(90.4753 0 -17.1756)
(88.8836 0 -16.8996)
(88.9335 -6.60874e-16 -16.8688)
(87.4384 6.45003e-16 -16.6308)
(87.3276 0 -16.58)
(85.9858 0 -16.3539)
(85.9483 0 -16.3139)
(84.2749 0 -16.0155)
(84.0104 0 -15.9477)
(81.7963 3.14982e-20 -15.5084)
(81.1288 0 -15.4181)
(79.112 -8.2733e-16 -14.9892)
(77.9175 1.55886e-15 -14.8167)
(76.9709 0 -14.5941)
(74.5889 2.60402e-20 -14.1686)
(74.5757 0 -14.156)
(71.2211 5.23151e-21 -13.4408)
(67.8001 0 -12.8979)
(69.953 1.20569e-15 -13.1231)
(54.7586 0 -10.3438)
(65.3682 -1.10004e-15 -11.8986)
(30.8703 0 -5.23216)
(497.468 0 9.98526)
(485.331 0 -5.30147)
(472.759 0 -17.6622)
(457.96 0 -27.1661)
(443.301 5.08829e-18 -33.9947)
(429.441 1.61019e-19 -38.7486)
(416.196 0 -42.4727)
(403.215 1.10849e-17 -45.8364)
(390.736 0 -48.7177)
(379.335 -2.2668e-17 -50.7454)
(369.245 0 -51.7602)
(360.126 1.11671e-17 -52.1182)
(351.379 0 -52.2691)
(342.879 2.17549e-17 -52.2663)
(334.9 -1.06804e-17 -52.0096)
(327.744 2.07218e-17 -51.4151)
(321.369 -2.03121e-17 -50.7998)
(315.215 -2.00789e-17 -50.4013)
(309.008 0 -50.3065)
(303.225 -1.97248e-17 -50.2163)
(297.955 -1.95208e-17 -51.3302)
(292.699 -3.81572e-17 -50.4118)
(287.48 -1.90001e-17 -49.8914)
(282.844 0 -49.1955)
(277.284 0 -48.3292)
(272.525 0 -47.5863)
(268.663 -3.56235e-17 -47.3475)
(263.382 -3.44608e-17 -46.3087)
(259.701 0 -45.8418)
(255.881 0 -46.1172)
(249.798 3.25937e-17 -44.4837)
(247.584 0 -44.4816)
(243.047 -8.56195e-21 -44.3692)
(238.197 -5.51435e-17 -42.1037)
(237.298 5.95393e-17 -43.3268)
(231.128 0 -42.0691)
(228.591 0 -40.9409)
(225.346 5.77584e-17 -42.1429)
(220.431 0 -39.8023)
(218.985 0 -40.3879)
(214.413 -4.55786e-17 -39.4287)
(212.593 8.94201e-17 -38.8726)
(208.19 0 -38.8483)
(205.472 7.7928e-17 -37.7338)
(202.538 0 -38.126)
(199.103 -7.14258e-17 -36.5013)
(197.408 -8.31558e-17 -36.8133)
(193.847 0 -35.8381)
(191.457 -7.59414e-17 -35.6674)
(188.057 6.59128e-17 -35.1553)
(185.927 2.73656e-16 -34.6992)
(183.073 -1.25198e-16 -34.1737)
(181.014 1.25144e-16 -33.5714)
(178.162 -6.01766e-20 -33.3708)
(175.788 0 -32.7945)
(173.152 -1.15111e-16 -32.5946)
(170.952 -1.06022e-16 -31.8887)
(169.004 1.09043e-16 -31.7078)
(166.619 -9.90417e-17 -31.0624)
(164.455 -1.96846e-16 -30.9025)
(162.379 -1.80731e-16 -30.4337)
(160.359 1.87357e-16 -30.1565)
(158.27 -1.70964e-16 -29.6439)
(156.512 0 -29.4552)
(154.437 0 -29.0374)
(152.712 -1.57844e-16 -28.7836)
(150.958 0 -28.399)
(149.365 0 -28.152)
(147.541 2.77925e-16 -27.8129)
(145.909 0 -27.5839)
(144.435 2.53279e-16 -27.2847)
(143.145 5.04615e-16 -27.0091)
(141.695 0 -26.6964)
(140.396 2.30172e-16 -26.5051)
(139.026 0 -26.2656)
(137.71 0 -26.0385)
(136.383 4.03115e-16 -25.8075)
(135.358 -3.9851e-16 -25.5975)
(134.216 -3.06697e-20 -25.3987)
(132.979 0 -25.1953)
(132.165 0 -24.9898)
(131.223 0 -24.8468)
(129.959 3.22615e-16 -24.6309)
(129.206 -3.13878e-16 -24.4565)
(128.315 0 -24.342)
(127.194 -1.13974e-15 -24.0933)
(126.54 -5.48916e-16 -23.9543)
(125.531 1.08342e-15 -23.8144)
(124.695 5.0389e-16 -23.6225)
(123.733 1.00462e-15 -23.4742)
(123.075 0 -23.3429)
(122.011 0 -23.13)
(121.474 -4.48541e-16 -23.057)
(120.186 -8.53248e-16 -22.7934)
(119.977 8.32735e-16 -22.7615)
(118.355 0 -22.4383)
(118.26 0 -22.4365)
(116.369 -7.14748e-16 -22.073)
(116.477 -6.97676e-16 -22.0817)
(114.233 0 -21.6877)
(114.375 6.18921e-16 -21.6609)
(112.204 -6.03971e-16 -21.3166)
(112.113 0 -21.2478)
(110.203 0 -20.9331)
(110.003 0 -20.8455)
(107.927 0 -20.4776)
(107.258 0 -20.32)
(104.697 8.68079e-16 -19.8078)
(103.446 0 -19.6226)
(100.978 0 -19.0816)
(99.2351 0 -18.8381)
(97.712 -1.40359e-15 -18.4778)
(94.7722 -1.31072e-15 -17.9629)
(94.1934 0 -17.8348)
(90.3538 1.21762e-15 -16.9736)
(85.3238 0 -16.2103)
(88.7959 1.12694e-15 -16.5292)
(68.8432 0 -12.9565)
(83.2033 1.02802e-15 -15.217)
(41.5481 0 -6.9005)
(508.849 -4.91406e-18 10.856)
(503.649 -4.8817e-18 -2.27366)
(496.331 4.98662e-18 -13.4248)
(486.896 5.12592e-18 -22.7258)
(476.492 0 -30.1301)
(465.702 -5.12121e-18 -36.1133)
(454.571 0 -41.3095)
(443.325 1.07102e-17 -45.9201)
(432.546 1.06917e-17 -49.6504)
(422.723 2.13154e-17 -52.2792)
(413.848 -1.06191e-17 -53.924)
(405.504 1.05838e-17 -55.0251)
(397.267 0 -55.8975)
(389.197 0 -56.4956)
(381.615 1.00741e-17 -56.7191)
(374.706 3.397e-20 -56.5422)
(368.345 -9.3772e-20 -56.3442)
(362.085 -1.12418e-19 -56.3623)
(355.778 0 -56.5854)
(349.741 0 -56.8532)
(344.755 0 -57.3705)
(339.494 3.59135e-17 -57.6715)
(334.24 1.80522e-17 -56.6669)
(329.553 0 -55.9019)
(323.829 0 -55.1778)
(318.787 3.38615e-17 -54.4444)
(314.729 0 -54.3283)
(309.234 0 -53.5208)
(305.129 0 -52.9232)
(301.173 0 -53.3943)
(294.883 1.20038e-19 -51.8577)
(292.227 0 -51.5104)
(287.61 -5.60202e-20 -51.8088)
(282.349 5.1985e-17 -49.3349)
(280.992 -3.43058e-19 -50.4655)
(274.72 0 -49.6451)
(271.679 0 -48.0177)
(268.16 0 -49.576)
(263.024 0 -47.0452)
(261.094 0 -47.5819)
(256.273 0 -46.7603)
(254.054 0 -45.9833)
(249.319 -8.64083e-17 -46.2255)
(246.272 -7.3711e-17 -44.7319)
(242.974 0 -45.4083)
(239.246 -6.79517e-17 -43.4633)
(237.113 0 -43.9226)
(233.259 0 -42.8387)
(230.47 1.4287e-16 -42.6644)
(226.743 0 -42.0973)
(224.255 -1.28781e-16 -41.5412)
(221.054 0 -41.0255)
(218.637 -2.35559e-16 -40.2826)
(215.417 -7.52493e-20 -40.1658)
(212.713 0 -39.4165)
(209.719 0 -39.2998)
(207.201 0 -38.399)
(204.9 -2.05172e-16 -38.3045)
(202.206 1.86435e-16 -37.5019)
(199.689 1.85025e-16 -37.3964)
(197.306 1.70089e-16 -36.791)
(194.949 -3.5254e-16 -36.5469)
(192.556 -1.60931e-16 -35.9023)
(190.473 0 -35.7414)
(188.107 0 -35.2197)
(186.07 8.66918e-20 -34.9684)
(184.028 0 -34.4951)
(182.138 0 -34.2439)
(180.041 2.61229e-16 -33.827)
(178.129 0 -33.5795)
(176.394 0 -33.2121)
(174.838 -4.74136e-16 -32.9153)
(173.134 2.177e-16 -32.5409)
(171.578 0 -32.3307)
(169.966 0 -32.0369)
(168.401 0 -31.7782)
(166.833 -3.78585e-16 -31.499)
(165.573 0 -31.2507)
(164.203 -7.16333e-16 -31.0139)
(162.741 3.39998e-16 -30.7775)
(161.706 0 -30.5191)
(160.54 0 -30.3587)
(159.063 -3.02735e-16 -30.0915)
(158.084 4.06769e-20 -29.8722)
(156.977 -2.89967e-16 -29.7374)
(155.626 5.34589e-16 -29.429)
(154.761 -5.14626e-16 -29.2538)
(153.506 -5.0795e-16 -29.084)
(152.478 -4.72441e-16 -28.8369)
(151.24 -8.49483e-20 -28.6527)
(150.413 0 -28.4832)
(149.025 4.42933e-16 -28.2124)
(148.367 0 -28.1187)
(146.669 0 -27.7744)
(146.405 -7.80113e-16 -27.7368)
(144.258 0 -27.3115)
(144.201 0 -27.317)
(141.637 0 -26.827)
(141.878 6.53239e-16 -26.8557)
(138.841 0 -26.3202)
(139.135 5.79322e-16 -26.305)
(136.143 0 -25.8296)
(136.091 0 -25.7462)
(133.528 0 -25.3262)
(133.072 0 -25.1748)
(130.645 0 -24.745)
(129.356 8.4242e-16 -24.4593)
(126.628 8.11841e-16 -23.904)
(124.572 -7.65589e-16 -23.5824)
(121.756 0 -22.9492)
(119.402 0 -22.6221)
(117.177 2.62436e-15 -22.1026)
(113.815 0 -21.5235)
(112.369 -1.1846e-15 -21.2276)
(108.416 0 -20.2769)
(101.38 -1.08844e-15 -19.2414)
(106.605 -1.0531e-15 -19.7039)
(81.9858 0 -15.3887)
(100.018 9.60482e-16 -17.6965)
(53.2175 0 -8.49552)
(513.514 4.62696e-18 10.3502)
(512.701 9.52231e-18 -0.806788)
(509.158 -4.6968e-18 -10.5887)
(503.763 2.93152e-19 -19.3101)
(496.764 5.17569e-18 -26.9028)
(488.678 0 -33.6362)
(479.83 0 -39.7195)
(470.811 -1.00893e-17 -44.9615)
(462.232 -2.01396e-17 -49.0872)
(454.368 -1.40393e-20 -52.1002)
(447.007 1.00034e-17 -54.2782)
(439.755 -9.97013e-18 -56.0342)
(432.426 9.98566e-18 -57.5582)
(425.217 0 -58.7377)
(418.416 0 -59.4913)
(412.074 -9.24809e-18 -59.8755)
(406.051 3.63783e-17 -60.2242)
(400.047 3.59896e-17 -60.7081)
(394.025 0 -61.246)
(388.332 0 -61.7327)
(383.437 0 -62.0268)
(378.557 1.3199e-20 -63.264)
(374.055 -3.41244e-17 -61.7301)
(369.327 1.70356e-17 -61.0266)
(363.666 3.34663e-17 -60.5398)
(358.59 -6.38542e-17 -59.9253)
(354.559 3.15774e-17 -59.9632)
(349.132 3.10255e-17 -59.4504)
(344.838 2.95904e-17 -58.8068)
(340.97 0 -59.4229)
(334.763 -2.90502e-17 -58.089)
(331.828 2.74251e-17 -57.4664)
(327.347 -2.89248e-17 -58.1049)
(321.902 -5.01309e-17 -55.6314)
(320.222 -1.04729e-16 -56.603)
(314.093 0 -56.2403)
(310.711 0 -54.2776)
(307.096 -5.01927e-17 -56.0438)
(301.922 0 -53.5128)
(299.648 4.42236e-17 -53.9551)
(294.751 4.09502e-17 -53.3101)
(292.265 0 -52.3859)
(287.37 1.62636e-16 -52.8543)
(284.116 6.9369e-17 -51.0948)
(280.6 0 -51.9962)
(276.702 6.39416e-17 -49.8468)
(274.249 7.28742e-17 -50.4135)
(270.226 0 -49.2858)
(267.15 -1.34011e-16 -49.112)
(263.212 5.86273e-17 -48.5159)
(260.471 1.20691e-16 -47.8831)
(257.027 0 -47.3947)
(254.344 1.27066e-19 -46.5423)
(250.854 -2.13573e-16 -46.5184)
(247.907 0 -45.6308)
(244.642 0 -45.6034)
(241.887 9.38987e-17 -44.5406)
(239.307 9.64076e-17 -44.5386)
(236.379 -1.75306e-16 -43.6082)
(233.58 -1.73928e-16 -43.5641)
(230.956 -1.59874e-16 -42.841)
(228.327 1.65668e-16 -42.6393)
(225.687 3.02549e-16 -41.8796)
(223.331 0 -41.7548)
(220.727 0 -41.1439)
(218.425 2.78649e-16 -40.9034)
(216.139 0 -40.3517)
(213.994 0 -40.1057)
(211.661 -2.4535e-16 -39.622)
(209.502 0 -39.3646)
(207.535 2.23293e-16 -38.936)
(205.74 6.12689e-20 -38.6249)
(203.809 -2.04378e-16 -38.1956)
(202.017 0 -37.9721)
(200.181 0 -37.629)
(198.381 0 -37.343)
(196.585 -3.55324e-16 -37.0195)
(195.096 0 -36.7347)
(193.502 3.35998e-16 -36.4623)
(191.817 -6.37882e-16 -36.1955)
(190.562 0 -35.8822)
(189.168 0 -35.7056)
(187.471 0 -35.3881)
(186.257 4.08546e-20 -35.1202)
(184.921 2.71835e-16 -34.9649)
(183.325 5.01457e-16 -34.5945)
(182.232 4.82327e-16 -34.3788)
(180.707 -4.75856e-16 -34.1768)
(179.469 0 -33.8704)
(177.922 -4.41069e-16 -33.645)
(176.91 0 -33.4336)
(175.151 -4.14877e-16 -33.0973)
(174.361 0 -32.9805)
(172.19 0 -32.5443)
(171.878 0 -32.5005)
(169.113 6.91605e-16 -31.9576)
(169.128 6.62349e-16 -31.9746)
(165.761 0 -31.3359)
(166.2 -6.1121e-16 -31.3937)
(162.214 5.69524e-16 -30.6905)
(162.741 -5.42056e-16 -30.6982)
(158.782 5.28612e-16 -30.0668)
(158.795 0 -29.9725)
(155.519 0 -29.4365)
(154.704 0 -29.2018)
(152.026 0 -28.7268)
(149.878 -7.87734e-16 -28.2683)
(147.208 -4.10302e-20 -27.709)
(144.132 1.43152e-15 -27.2124)
(141.093 0 -26.5077)
(138.134 0 -26.1007)
(135.093 -1.2264e-15 -25.3959)
(131.536 0 -24.798)
(128.927 1.10701e-15 -24.2817)
(125.334 0 -23.3067)
(115.924 2.03399e-15 -21.9701)
(123.298 0 -22.5927)
(94.4952 0 -17.6639)
(115.448 -8.97237e-16 -20.4687)
(65.8855 0 -10.4804)
(513.843 0 8.57233)
(515.687 -4.63256e-18 -0.899829)
(514.757 0 -9.39334)
(512.169 -4.81824e-18 -17.4228)
(507.682 -9.93261e-18 -24.9179)
(501.871 0 -31.873)
(495.299 4.88727e-18 -38.1336)
(488.653 0 -43.4102)
(482.337 1.58651e-20 -47.5716)
(476.383 -1.88534e-17 -50.7899)
(470.509 0 -53.4166)
(464.444 0 -55.7342)
(458.194 -9.39554e-18 -57.8127)
(452.027 0 -59.5255)
(446.167 0 -60.8272)
(440.564 0 -61.8047)
(435.096 -1.71647e-17 -62.6933)
(429.611 -1.69777e-17 -63.5968)
(424.134 -1.68255e-17 -64.405)
(418.957 0 -65.0918)
(414.374 0 -65.7699)
(410.467 -1.59207e-17 -66.6949)
(406.68 1.61078e-17 -65.2895)
(402.013 -1.60263e-17 -64.763)
(396.621 -3.14829e-17 -64.5312)
(391.717 6.0223e-17 -64.1148)
(387.888 -1.67724e-20 -64.3144)
(382.767 -2.91845e-17 -64.1251)
(378.498 -2.78338e-17 -63.4988)
(374.894 0 -64.2026)
(369.02 0 -63.149)
(365.955 -2.57947e-17 -62.3237)
(361.78 0 -63.2309)
(356.369 4.71475e-17 -60.9343)
(354.488 4.90998e-17 -61.7049)
(348.716 -4.90937e-17 -61.7918)
(345.16 0 -59.6501)
(341.604 4.71985e-17 -61.4901)
(336.566 3.98533e-17 -59.1144)
(334.086 -2.09379e-19 -59.4388)
(329.272 -7.71855e-17 -58.9946)
(326.649 0 -57.999)
(321.76 -7.64453e-17 -58.6518)
(318.422 0 -56.7354)
(314.829 0 -57.8003)
(310.888 0 -55.5583)
(308.23 -3.88044e-19 -56.1949)
(304.164 0 -55.0826)
(300.92 6.28687e-17 -54.9149)
(296.888 -1.1032e-16 -54.3139)
(294 -1.13417e-16 -53.6321)
(290.422 0 -53.1874)
(287.569 1.03918e-16 -52.2611)
(283.911 2.00484e-16 -52.3338)
(280.813 0 -51.3467)
(277.37 0 -51.4097)
(274.46 -8.82046e-17 -50.2225)
(271.682 -9.03016e-17 -50.315)
(268.597 8.2336e-17 -49.2885)
(265.589 1.63026e-16 -49.3095)
(262.797 0 -48.4912)
(259.963 0 -48.3388)
(257.139 8.47374e-20 -47.4833)
(254.567 1.45794e-16 -47.4007)
(251.78 0 -46.7162)
(249.263 -1.30732e-16 -46.4937)
(246.783 0 -45.8758)
(244.426 0 -45.6437)
(241.896 0 -45.1046)
(239.527 0 -44.8451)
(237.361 -7.58265e-20 -44.3634)
(235.357 7.09642e-20 -44.0448)
(233.223 1.91815e-16 -43.5675)
(231.216 0 -43.3365)
(229.178 1.78865e-16 -42.9492)
(227.16 0 -42.6402)
(225.147 3.33187e-16 -42.2762)
(223.437 -3.29101e-16 -41.9569)
(221.623 3.14896e-16 -41.6507)
(219.717 2.98984e-16 -41.3558)
(218.24 0 -40.9862)
(216.613 -2.90616e-16 -40.794)
(214.693 0 -40.4269)
(213.234 2.58646e-16 -40.1076)
(211.658 2.54454e-16 -39.9308)
(209.802 -4.69765e-16 -39.4964)
(208.464 0 -39.2362)
(206.644 8.91254e-16 -38.9994)
(205.181 0 -38.63)
(203.291 -4.12777e-16 -38.3586)
(202.082 0 -38.1023)
(199.904 -3.88353e-16 -37.6927)
(198.983 0 -37.5517)
(196.27 -7.00685e-16 -37.0127)
(195.931 6.83395e-16 -36.9645)
(192.449 -6.47201e-16 -36.288)
(192.596 -6.1976e-16 -36.3242)
(188.288 0 -35.5146)
(189.017 1.14349e-15 -35.6151)
(183.924 -1.06553e-15 -34.7182)
(184.786 0 -34.765)
(179.73 -4.94377e-16 -33.9549)
(179.844 0 -33.8574)
(175.843 0 -33.2)
(174.557 8.29987e-16 -32.8661)
(171.796 0 -32.3719)
(168.538 0 -31.6985)
(166.197 -7.09487e-16 -31.183)
(161.93 -1.338e-15 -30.4779)
(158.794 -6.32205e-16 -29.7294)
(155.335 0 -29.2581)
(151.364 0 -28.3511)
(147.943 0 -27.794)
(143.9 0 -27.0173)
(141.216 -9.93494e-16 -26.099)
(129.179 -9.50056e-16 -24.4469)
(138.951 0 -25.2479)
(106.815 0 -19.8727)
(129.628 0 -23.3081)
(79.9178 0 -12.1095)
(511.368 5.02009e-18 5.70497)
(514.676 0 -2.297)
(515.458 5.00485e-18 -9.59552)
(514.712 0 -16.8729)
(512.09 4.7585e-18 -23.9609)
(508.272 0 -30.6372)
(503.885 -4.59349e-18 -36.5621)
(499.449 8.98851e-18 -41.5158)
(495.128 1.77846e-17 -45.5389)
(490.801 -4.77332e-20 -48.8717)
(486.208 0 -51.8348)
(481.245 0 -54.5935)
(476.07 0 -57.1299)
(470.962 0 -59.316)
(466.062 0 -61.1355)
(461.26 0 -62.6624)
(456.475 1.63423e-17 -64.0097)
(451.669 -1.60991e-17 -65.2302)
(446.89 1.58138e-17 -66.2275)
(442.331 0 -67.0264)
(438.278 0 -67.7671)
(435.286 1.43475e-17 -69.4874)
(432.464 1.57942e-17 -67.1556)
(427.867 1.51442e-17 -67.4213)
(422.877 0 -67.2983)
(418.272 -2.83377e-17 -67.1265)
(414.759 -5.57884e-17 -67.4813)
(410.12 2.75685e-17 -67.608)
(406.048 0 -67.0537)
(402.826 0 -67.7793)
(397.477 0 -67.0542)
(394.406 2.41877e-17 -66.1001)
(390.647 0 -67.1963)
(385.459 0 -65.2263)
(383.479 4.56733e-17 -65.7712)
(378.229 4.61236e-17 -66.2684)
(374.661 0 -64.0914)
(371.284 4.34327e-17 -65.8854)
(366.531 -7.52736e-17 -63.7883)
(363.969 -3.88641e-17 -63.9911)
(359.372 3.63361e-17 -63.7558)
(356.731 0 -62.7576)
(351.998 0 -63.5515)
(348.692 0 -61.5757)
(345.151 6.84533e-17 -62.7445)
(341.283 0 -60.5132)
(338.533 -6.39611e-17 -61.1845)
(334.539 -5.60246e-17 -60.1404)
(331.243 0 -59.986)
(327.231 5.18513e-17 -59.402)
(324.298 0 -58.7001)
(320.692 0 -58.3156)
(317.763 9.72952e-17 -57.3518)
(314.038 -1.08986e-19 -57.5208)
(310.88 -8.93565e-17 -56.4736)
(307.354 0 -56.6237)
(304.371 0 -55.3514)
(301.475 8.47484e-17 -55.5363)
(298.31 0 -54.4472)
(295.171 -1.52981e-16 -54.5339)
(292.281 0 -53.6446)
(289.313 0 -53.5463)
(286.369 -2.66828e-16 -52.6161)
(283.641 -2.73271e-16 -52.5799)
(280.728 -1.22877e-16 -51.8388)
(278.051 0 -51.6403)
(275.425 0 -50.9693)
(272.901 -1.15313e-16 -50.7588)
(270.218 -2.1589e-16 -50.1762)
(267.676 0 -49.9216)
(265.348 -1.96361e-16 -49.3956)
(263.164 1.95634e-16 -49.0759)
(260.855 -1.79814e-16 -48.5581)
(258.66 1.78214e-16 -48.3252)
(256.442 -1.67645e-16 -47.8995)
(254.224 0 -47.5715)
(252.01 0 -47.1712)
(250.089 3.08373e-16 -46.8195)
(248.062 -5.90003e-16 -46.4814)
(245.939 0 -46.1608)
(244.242 0 -45.7348)
(242.381 2.72211e-16 -45.5277)
(240.236 0 -45.1119)
(238.527 0 -44.7393)
(236.706 -2.38271e-16 -44.5409)
(234.579 -4.40359e-16 -44.041)
(232.987 0 -43.7337)
(230.852 -4.17113e-16 -43.4604)
(229.157 0 -43.0258)
(226.894 3.86342e-16 -42.7043)
(225.488 -3.68439e-16 -42.4019)
(222.846 3.63413e-16 -41.9128)
(221.809 3.44747e-16 -41.7487)
(218.491 -1.78267e-20 -41.0973)
(218.169 -6.3933e-16 -41.0498)
(213.871 0 -40.2252)
(214.238 5.79438e-16 -40.2927)
(208.854 -5.48289e-16 -39.2915)
(209.995 -5.34638e-16 -39.4528)
(203.648 9.96459e-16 -38.3391)
(204.974 0 -38.4456)
(198.725 -4.61948e-16 -37.4399)
(198.979 0 -37.3493)
(194.307 0 -36.5757)
(192.424 -7.75804e-16 -36.1267)
(189.828 0 -35.6519)
(185.219 0 -34.724)
(183.508 6.62923e-16 -34.3066)
(177.954 -1.60855e-20 -33.372)
(174.823 -4.82879e-21 -32.605)
(171.085 5.56216e-16 -32.1052)
(166.075 0 -30.9796)
(163.205 -1.00001e-15 -30.5374)
(157.511 -9.65885e-16 -29.473)
(156.301 9.27996e-16 -28.6887)
(141.566 8.87408e-16 -26.7466)
(153.76 0 -27.6983)
(119.589 8.19623e-16 -22.146)
(143.172 0 -24.961)
(95.2045 0 -14.6508)
(507.27 -4.71196e-18 2.21313)
(511.283 4.94949e-18 -4.42545)
(513.079 1.83378e-19 -10.5881)
(513.474 4.7806e-18 -17.0293)
(512.289 0 -23.4511)
(510.207 -4.48104e-18 -29.5084)
(507.751 4.33837e-18 -34.8767)
(505.185 5.11399e-20 -39.4497)
(502.458 -1.67869e-17 -43.3426)