/*--------------------------------*- C++ -*----------------------------------*\
| =========                 |                                                 |
| \\      /  F ield         | OpenFOAM: The Open Source CFD Toolbox           |
|  \\    /   O peration     | Version:  2412                                  |
|   \\  /    A nd           | Website:  www.openfoam.com                      |
|    \\/     M anipulation  |                                                 |
\*---------------------------------------------------------------------------*/
FoamFile
{
    version     2.0;
    format      ascii;
    arch        "LSB;label=32;scalar=64";
    class       surfaceScalarField;
    location    "0.075";
    object      phi;
}
// * * * * * * * * * * * * * * * * * * * * * * * * * * * * * * * * * * * * * //

dimensions      [0 3 -1 0 0 0 0];

oriented        oriented;

internalField   nonuniform List<scalar> 
24930
(
-0.00449883
-0.00409901
0.00859864
-0.0030008
-0.00149804
-0.00226277
-0.00073806
-0.00180435
-0.00045842
-0.00148213
-0.000322214
-0.00123788
-0.000244244
-0.00104336
-0.000194489
-0.000883184
-0.000160149
-0.000747997
-0.000135163
-0.000631713
-0.000116287
-0.000530138
-0.000101601
-0.000440276
-8.98884e-05
-0.000359927
-8.03632e-05
-0.000287427
-7.25067e-05
-0.000221471
-6.59639e-05
-0.000161039
-6.04414e-05
-0.000105349
-5.56913e-05
-5.37232e-05
-5.16115e-05
-5.54596e-06
-4.8158e-05
3.92087e-05
-4.4743e-05
8.12974e-05
-4.20856e-05
0.000120946
-3.96485e-05
0.00015844
-3.74959e-05
0.000193968
-3.55352e-05
0.000227691
-3.373e-05
0.000259801
-3.21207e-05
0.000290438
-3.06441e-05
0.000319758
-2.92988e-05
0.000347855
-2.8088e-05
0.000374824
-2.69747e-05
0.00040082
-2.59807e-05
0.000425853
-2.50644e-05
0.000450033
-2.41893e-05
0.00047348
-2.34071e-05
0.000496137
-2.26821e-05
0.0005182
-2.20289e-05
0.000539665
-2.1453e-05
0.000560541
-2.09187e-05
0.000580996
-2.04183e-05
0.000600928
-1.99568e-05
0.000620504
-1.95575e-05
0.000639704
-1.91937e-05
0.00065859
-1.88971e-05
0.000677225
-1.86246e-05
0.00069558
-1.83839e-05
0.00071378
-1.81677e-05
0.000731772
-1.80095e-05
0.000749695
-1.79076e-05
0.000767518
-1.78348e-05
0.000785323
-1.78078e-05
0.000803107
-1.77859e-05
0.000820936
-1.7823e-05
0.000838846
-1.7898e-05
0.000856886
-1.80496e-05
0.000875098
-1.82081e-05
0.000893502
-1.84156e-05
0.000912156
-1.86402e-05
0.00093108
-1.8933e-05
0.000950362
-1.92678e-05
0.000970021
-1.96696e-05
0.000990132
-2.01025e-05
0.00101073
-2.06013e-05
0.00103189
-2.11491e-05
0.00105365
-2.17733e-05
0.0010761
-2.24422e-05
0.00109926
-2.3169e-05
0.00112323
-2.39649e-05
0.00114807
-2.48394e-05
0.00117385
-2.57793e-05
0.00120063
-2.67934e-05
0.0012285
-2.78723e-05
0.00125754
-2.90334e-05
0.00128783
-3.02886e-05
0.00131947
-3.16432e-05
0.00135256
-3.30909e-05
0.00138719
-3.46279e-05
0.00142348
-3.62814e-05
0.00146152
-3.80496e-05
0.00150144
-3.99262e-05
0.00154336
-4.19172e-05
0.00158742
-4.40551e-05
0.00163374
-4.63232e-05
0.00168249
-4.87418e-05
0.0017338
-5.13188e-05
0.00178786
-5.40686e-05
0.00184482
-5.69493e-05
0.00190491
-6.009e-05
0.00196823
-6.3323e-05
0.00203513
-6.69022e-05
0.00210562
-7.04968e-05
0.00218024
-7.46207e-05
0.00225882
-7.85734e-05
0.00234218
-8.33652e-05
0.00242984
-8.76657e-05
0.00252313
-9.32867e-05
0.00262108
-9.79495e-05
0.00272552
-0.000104438
0.00283525
-0.000109732
0.00295199
-0.000116743
0.00307541
-0.000123415
0.00320548
-0.000130075
0.00334533
-0.000139857
0.00348972
-0.00014439
0.00364955
-0.000159835
0.00380971
-0.00016016
0.00399243
-0.000182722
0.00417052
-0.000178089
0.00437564
-0.00020512
0.00457637
-0.000200724
0.00480254
-0.000226178
0.00503334
-0.000230794
0.0052823
-0.000248963
0.00554693
-0.000264632
0.00582258
-0.000275646
0.00610899
-0.000286412
0.00641725
-0.000308264
0.00667116
-0.000253902
0.00698608
-0.00031493
0.00676877
0.000217317
0.000514206
-0.0101598
-0.00673296
0.0127938
-0.00794253
-0.00371537
-0.0063673
-0.0023133
-0.00523606
-0.00158965
-0.00438345
-0.0011748
-0.00371192
-0.000915732
-0.00316443
-0.00074194
-0.0027059
-0.000618641
-0.00231373
-0.000527343
-0.00197261
-0.000457443
-0.00167179
-0.000402464
-0.00140344
-0.000358259
-0.00116174
-0.000322077
-0.000942218
-0.000292043
-0.000741302
-0.000266891
-0.000556204
-0.000245534
-0.000384767
-0.000227106
-0.00022524
-0.000211111
-7.62063e-05
-0.000197171
6.35864e-05
-0.000184528
0.000195111
-0.000173613
0.00031956
-0.000164106
0.000437617
-0.000155561
0.000549858
-0.000147798
0.000656738
-0.000140624
0.000758775
-0.000134149
0.000856395
-0.000128265
0.000950002
-0.000122887
0.00103994
-0.000118006
0.0011265
-0.000113574
0.00121001
-0.000109486
0.00129068
-0.000105726
0.00136871
-0.000102254
0.00144439
-9.90101e-05
0.00151782
-9.61251e-05
0.00158927
-9.34898e-05
0.00165892
-9.10543e-05
0.00172683
-8.88984e-05
0.00179327
-8.68027e-05
0.00185824
-8.49466e-05
0.00192199
-8.32928e-05
0.00198462
-8.18146e-05
0.00204625
-8.05697e-05
0.00210707
-7.93937e-05
0.00216705
-7.8416e-05
0.00222644
-7.75091e-05
0.00228529
-7.68832e-05
0.00234381
-7.64154e-05
0.00240207
-7.61102e-05
0.0024602
-7.59346e-05
0.0025183
-7.58736e-05
0.00257648
-7.60116e-05
0.00263494
-7.63311e-05
0.00269376
-7.68954e-05
0.00275311
-7.75364e-05
0.00281304
-7.8371e-05
0.00287373
-7.93037e-05
0.00293528
-8.04983e-05
0.0029979
-8.18639e-05
0.0030617
-8.34843e-05
0.00312689
-8.52683e-05
0.00319361
-8.73386e-05
0.00326207
-8.95909e-05
0.00333242
-9.21383e-05
0.00340487
-9.48827e-05
0.00347958
-9.78876e-05
0.0035568
-0.000101174
0.00363673
-0.000104787
0.00371961
-0.000108655
0.00380564
-0.000112832
0.00389507
-0.000117292
0.00398814
-0.000122116
0.00408517
-0.000127305
0.00418642
-0.000132895
0.00429221
-0.000138878
0.00440284
-0.000145263
0.00451866
-0.000152104
0.00464002
-0.000159413
0.00476729
-0.000167189
0.00490082
-0.000175448
0.00504106
-0.000184286
0.00518843
-0.000193705
0.00534341
-0.000203717
0.00550648
-0.000214396
0.00567818
-0.000225773
0.00585901
-0.000237776
0.00604962
-0.000250694
0.0062505
-0.000264217
0.00646248
-0.000278869
0.00668599
-0.000294016
0.0069221
-0.00031073
0.00717114
-0.000327621
0.00743453
-0.000346753
0.00771236
-0.000365497
0.00800664
-0.000387569
0.00831704
-0.00040835
0.00864613
-0.000433526
0.00899361
-0.000457209
0.00936144
-0.000484582
0.00975141
-0.000513378
0.0101621
-0.000540736
0.0106018
-0.000579624
0.0110597
-0.000602212
0.0115587
-0.000658897
0.0120694
-0.000670832
0.0126367
-0.00075
0.0132067
-0.000748143
0.0138436
-0.000841995
0.0144842
-0.000841358
0.0151901
-0.000932077
0.0159202
-0.000960925
0.0167018
-0.00103054
0.0175348
-0.00109756
0.0184012
-0.0011421
0.0193098
-0.00119503
0.0202788
-0.00127721
0.0211022
-0.00107731
0.0221318
-0.00134459
0.0216152
0.000733969
0.00152265
-0.0138868
-0.00856908
0.0157229
-0.0117415
-0.00586068
-0.00988996
-0.00416485
-0.0083879
-0.0030917
-0.00716895
-0.00239372
-0.00616353
-0.00192111
-0.00531812
-0.0015873
-0.00459431
-0.00134243
-0.00396478
-0.00115689
-0.00340984
-0.00101241
-0.00291503
-0.000897294
-0.00246952
-0.000803787
-0.00206499
-0.000726611
-0.00169497
-0.000662075
-0.00135428
-0.000607585
-0.00103872
-0.000561092
-0.000744975
-0.000520826
-0.000470368
-0.000485697
-0.000212643
-0.000454884
3.05611e-05
-0.000427733
0.000259646
-0.000402706
0.000477316
-0.000381787
0.00068445
-0.000362704
0.000881961
-0.000345329
0.00107059
-0.000329263
0.00125114
-0.000314684
0.0014243
-0.000301428
0.00159072
-0.000289292
0.00175097
-0.000278231
0.00190552
-0.000268168
0.00205489
-0.00025885
0.00219945
-0.000250272
0.00233952
-0.000242371
0.00247557
-0.000234969
0.0026078
-0.000228371
0.00273661
-0.00022232
0.00286233
-0.00021671
0.00298507
-0.000211721
0.00310523
-0.000206906
0.00322291
-0.000202637
0.00333842
-0.000198802
0.00345202
-0.000195392
0.00356386
-0.000192455
0.00367424
-0.000189723
0.00378321
-0.000187442
0.00389111
-0.000185356
0.00399808
-0.000183881
0.00410443
-0.000182757
0.00421033
-0.00018202
0.00431597
-0.000181572
0.00442155
-0.000181442
0.00452727
-0.000181736
0.00463343
-0.000182469
0.00474021
-0.000183706
0.00484788
-0.000185179
0.00495656
-0.00018708
0.00506655
-0.000189258
0.00517803
-0.000191998
0.00529135
-0.000195161
0.00540673
-0.000198878
0.00552451
-0.000203023
0.00564496
-0.000207816
0.00576844
-0.000213051
0.00589523
-0.000218942
0.00602567
-0.00022532
0.00616008
-0.000232303
0.00629887
-0.000239952
0.00644241
-0.000248341
0.00659109
-0.000257339
0.0067453
-0.000267057
0.00690548
-0.00027746
0.00707207
-0.00028871
0.00724558
-0.000300806
0.00742651
-0.000313826
0.00761541
-0.000327772
0.00781281
-0.000342675
0.00801935
-0.000358638
0.00823562
-0.00037569
0.00846226
-0.000393833
0.00869994
-0.00041312
0.0089494
-0.000433741
0.00921142
-0.000455733
0.0094868
-0.000479099
0.00977646
-0.000504051
0.0100813
-0.000530581
0.0104022
-0.000558683
0.0107402
-0.000588747
0.0110965
-0.000620455
0.011472
-0.00065446
0.0118681
-0.000690114
0.0122861
-0.000728699
0.0127272
-0.000768723
0.013193
-0.000812532
0.0136849
-0.000857389
0.0142048
-0.000907443
0.0147541
-0.000957702
0.0153349
-0.00101437
0.0159496
-0.00107185
0.0165985
-0.00113353
0.0172876
-0.0012024
0.0180123
-0.00126551
0.0187876
-0.00135488
0.0195966
-0.00141124
0.0204734
-0.00153569
0.0213775
-0.00157495
0.0223713
-0.00174378
0.0233822
-0.00175908
0.0244978
-0.00195755
0.0256327
-0.00197632
0.0268718
-0.0021711
0.0281601
-0.00224928
0.0295351
-0.00240549
0.031001
-0.00256349
0.0325272
-0.00266825
0.034132
-0.00279984
0.0358454
-0.00299063
0.0373203
-0.00255218
0.0391968
-0.00322111
0.0386042
0.00132652
0.0028118
-0.016333
-0.00988605
0.01765
-0.0145312
-0.00766252
-0.0127395
-0.00595659
-0.0111226
-0.00470862
-0.00971067
-0.00380559
-0.00848573
-0.00314602
-0.00741815
-0.00265485
-0.00647974
-0.00228083
-0.00564699
-0.00198966
-0.00490112
-0.00175829
-0.00422737
-0.00157106
-0.00361406
-0.00141709
-0.00305195
-0.00128873
-0.00253357
-0.00118046
-0.0020529
-0.00108826
-0.00160489
-0.0010091
-0.00118544
-0.000940251
-0.000791234
-0.000879895
-0.000419437
-0.00082668
-6.75522e-05
-0.000779625
0.000266391
-0.000736661
0.000584337
-0.000699745
0.000887937
-0.000666312
0.00117839
-0.000635798
0.00145665
-0.000607543
0.00172379
-0.000581803
0.0019807
-0.000558339
0.00222824
-0.000536815
0.00246716
-0.000517129
0.0026981
-0.000499158
0.00292176
-0.000482504
0.00313866
-0.000467146
0.00334922
-0.000452981
0.00355406
-0.000439732
0.00375352
-0.000427839
0.00394807
-0.000416901
0.00413821
-0.000406778
0.0043241
-0.000397694
0.00450627
-0.000389013
0.00468489
-0.000381276
0.00486038
-0.000374289
0.0050331
-0.00036809
0.00520326
-0.00036267
0.00537129
-0.000357698
0.00553729
-0.000353498
0.00570171
-0.00034972
0.00586478
-0.000346982
0.00602692
-0.000344879
0.00618837
-0.000343491
0.00634943
-0.000342634
0.00651041
-0.000342401
0.00667157
-0.000342908
0.00683335
-0.000344226
0.00699602
-0.000346399
0.00715993
-0.000349072
0.00732533
-0.000352505
0.00749262
-0.000356511
0.00766208
-0.000361486
0.00783422
-0.00036727
0.00800935
-0.000374028
0.00818798
-0.000381623
0.00837052
-0.000390382
0.00855748
-0.000399988
0.00874928
-0.000410763
0.00894644
-0.000422473
0.00914941
-0.000435287
0.00935881
-0.00044934
0.00957518
-0.000464726
0.0097991
-0.000481257
0.0100311
-0.00049912
0.010272
-0.000518274
0.0105222
-0.000538989
0.0107827
-0.000561255
0.0110541
-0.000585208
0.0113372
-0.000610882
0.0116329
-0.000638342
0.011942
-0.000667757
0.0122655
-0.000699177
0.0126042
-0.000732607
0.0129593
-0.000768167
0.0133317
-0.000806172
0.0137227
-0.000846706
0.0141334
-0.00088978
0.0145651
-0.000935804
0.0150192
-0.000984688
0.0154971
-0.00103659
0.0160003
-0.00109192
0.0165303
-0.00115052
0.0170889
-0.001213
0.0176778
-0.00127904
0.0182988
-0.0013497
0.0189542
-0.00142412
0.0196456
-0.00150393
0.0203761
-0.00158784
0.021147
-0.00167843
0.0219624
-0.00177306
0.022823
-0.00187502
0.0237348
-0.00198364
0.0246957
-0.00209442
0.025717
-0.00222373
0.0267899
-0.00233835
0.0279375
-0.00250245
0.0291352
-0.00260894
0.0304302
-0.0028307
0.0317693
-0.00291414
0.0332341
-0.00320851
0.0347328
-0.00325781
0.0363764
-0.00360111
0.0380584
-0.0036584
0.0398855
-0.0039982
0.0417902
-0.00415397
0.0438198
-0.00443504
0.0459827
-0.00472639
0.0482382
-0.00492373
0.05061
-0.00517166
0.0531554
-0.00553605
0.0553617
-0.00475851
0.0582145
-0.00607386
0.0578416
0.00169943
0.0040971
-0.0179418
-0.0108407
0.0188964
-0.0165211
-0.00908324
-0.0149421
-0.00753557
-0.0133823
-0.00626841
-0.0119231
-0.00526477
-0.0105904
-0.00447874
-0.00938342
-0.00386178
-0.0082912
-0.00337306
-0.00729979
-0.00298108
-0.00639567
-0.00266242
-0.00556683
-0.00239989
-0.00480298
-0.00218093
-0.00409545
-0.00199626
-0.00343697
-0.00183895
-0.00282143
-0.00170382
-0.00224361
-0.00158691
-0.00169914
-0.00148471
-0.00118439
-0.00139464
-0.00069627
-0.00131481
-0.000232106
-0.00124381
0.000210586
-0.00117937
0.000633682
-0.00112285
0.00103931
-0.00107194
0.00142879
-0.0010253
0.00180323
-0.000981994
0.00216386
-0.000942414
0.00251175
-0.000906226
0.00284789
-0.00087295
0.0031732
-0.000842411
0.00348843
-0.000814433
0.0037944
-0.000788486
0.0040918
-0.000764514
0.00438113
-0.000742356
0.00466313
-0.000721658
0.00493824
-0.00070295
0.005207
-0.000685706
0.00547005
-0.000669763
0.00572763
-0.000655349
0.00598036
-0.000641681
0.00622851
-0.000629436
0.00647256
-0.000618336
0.00671297
-0.000608486
0.00695005
-0.000599794
0.0071843
-0.000591895
0.00741591
-0.000585167
0.00764544
-0.000579185
0.00787318
-0.000574756
0.00809965
-0.000571344
0.00832522
-0.000569077
0.00855027
-0.000567676
0.0087752
-0.00056732
0.00900039
-0.000568105
0.00922638
-0.000570189
0.00945353
-0.000573575
0.00968232
-0.000577837
0.00991309
-0.000583299
0.0101464
-0.000589755
0.0103826
-0.000597702
0.0106223
-0.000606987
0.0108661
-0.000617796
0.0111145
-0.000630008
0.0113681
-0.000644061
0.0116277
-0.000659528
0.0118937
-0.000676842
0.012167
-0.000695714
0.012448
-0.000716362
0.0127377
-0.000739017
0.0130368
-0.000763795
0.013346
-0.000790452
0.0136661
-0.000819276
0.0139981
-0.000850232
0.0143428
-0.000883702
0.0147012
-0.000919679
0.0150744
-0.000958369
0.0154634
-0.000999861
0.0158693
-0.00104427
0.0162934
-0.00109185
0.0167369
-0.00114267
0.017201
-0.00119674
0.0176871
-0.00125429
0.0181967
-0.00131578
0.0187314
-0.00138136
0.0192927
-0.00145107
0.0198824
-0.00152557
0.0205024
-0.00160466
0.0211546
-0.00168876
0.0218409
-0.00177821
0.0225636
-0.00187321
0.0233247
-0.0019741
0.0241269
-0.0020813
0.0249723
-0.00219513
0.0258644
-0.00231624
0.0268048
-0.00244432
0.0277984
-0.00258145
0.0288461
-0.00272607
0.0299545
-0.00288148
0.0311229
-0.0030434
0.0323617
-0.00322247
0.0336651
-0.00339779
0.0350518
-0.00361045
0.0365061
-0.00379265
0.0380625
-0.0040589
0.0396854
-0.00423187
0.0414387
-0.00458399
0.0432533
-0.00472869
0.0452326
-0.00518785
0.0472643
-0.00528944
0.0494837
-0.00582055
0.0517635
-0.00593819
0.0542317
-0.00646639
0.0568082
-0.00673044
0.059551
-0.00717789
0.0624711
-0.00764651
0.0655228
-0.00797538
0.068726
-0.00837485
0.0721885
-0.00899856
0.0752022
-0.00777226
0.0791408
-0.0100125
0.0793261
0.00151418
0.00502691
-0.0190219
-0.0115435
0.0197247
-0.0179234
-0.0101817
-0.0165964
-0.00886255
-0.0151835
-0.00768132
-0.0137771
-0.0066711
-0.0124278
-0.00582812
-0.0111576
-0.00513199
-0.00997267
-0.00455799
-0.00887089
-0.00408289
-0.00784634
-0.00368696
-0.00689191
-0.0033543
-0.00600042
-0.00307242
-0.00516511
-0.00283156
-0.00437992
-0.00262416
-0.00363943
-0.0024443
-0.00293891
-0.00228743
-0.00227417
-0.00214945
-0.00164171
-0.00202713
-0.00103843
-0.00191811
-0.000461668
-0.00182059
9.15137e-05
-0.00173256
0.000621753
-0.0016531
0.00113269
-0.00158288
0.00162532
-0.00151794
0.00210068
-0.00145737
0.00256013
-0.00140185
0.00300484
-0.00135093
0.00343586
-0.00130398
0.00385422
-0.00126074
0.00426073
-0.00122099
0.00465632
-0.00118408
0.00504176
-0.00114992
0.00541762
-0.00111827
0.00578475
-0.00108872
0.00614364
-0.00106184
0.0064949
-0.00103702
0.00683928
-0.00101407
0.00717706
-0.0009932
0.00750895
-0.000973525
0.00783532
-0.000955813
0.0081567
-0.000939713
0.00847364
-0.000925406
0.0087865
-0.000912701
0.0090959
-0.000901238
0.00940209
-0.000891411
0.00970571
-0.000882752
0.0100072
-0.000876232
0.010307
-0.000871204
0.0106058
-0.000867851
0.0109039
-0.000865799
0.0112019
-0.000865325
0.0115003
-0.000866486
0.0117997
-0.000869543
0.0121005
-0.000874446
0.0124034
-0.000880719
0.0127089
-0.000888748
0.0130175
-0.000898328
0.0133298
-0.000910033
0.0136466
-0.000923761
0.0139685
-0.000939697
0.0142962
-0.000957766
0.0146307
-0.000978528
0.0149726
-0.00100144
0.0153228
-0.00102706
0.0156822
-0.00105505
0.0160514
-0.00108567
0.0164317
-0.00111928
0.0168239
-0.00115601
0.017229
-0.00119556
0.0176481
-0.00123836
0.0180823
-0.00128439
0.0185327
-0.00133415
0.0190007
-0.00138765
0.0194875
-0.00144516
0.0199945
-0.00150687
0.0205232
-0.00157295
0.0210751
-0.00164376
0.0216518
-0.00171941
0.022255
-0.00179991
0.0228863
-0.00188561
0.0235477
-0.00197715
0.0242411
-0.00207479
0.0249686
-0.00217859
0.0257326
-0.00228957
0.0265353
-0.00240734
0.0273792
-0.0025327
0.0282668
-0.00266583
0.0292011
-0.00280748
0.0301845
-0.00295747
0.0312207
-0.00311748
0.0323119
-0.00328641
0.0334632
-0.00346753
0.0346759
-0.00365697
0.0359571
-0.00386272
0.0373067
-0.00407565
0.0387351
-0.00430984
0.0402386
-0.00454694
0.041834
-0.00481789
0.0435096
-0.00507339
0.0452943
-0.00539512
0.0471624
-0.00566072
0.0491634
-0.00605993
0.0512469
-0.00631533
0.0534971
-0.0068342
0.0558259
-0.00705749
0.058361
-0.00772296
0.0609689
-0.0078974
0.0638085
-0.00866013
0.0667342
-0.00886389
0.0698923
-0.00962446
0.0731921
-0.0100303
0.0767023
-0.0106881
0.0804339
-0.0113781
0.0843432
-0.0118846
0.0884333
-0.012465
0.0928889
-0.0134541
0.0967832
-0.0116665
0.101882
-0.0151111
0.102967
0.000429106
0.00521232
-0.0197716
-0.0120801
0.0203082
-0.0189147
-0.0110385
-0.0178197
-0.00995761
-0.0165829
-0.00891806
-0.0152849
-0.00796914
-0.0139822
-0.00713091
-0.0127095
-0.00640466
-0.0114859
-0.00578164
-0.0103198
-0.00524907
-0.00921318
-0.00479352
-0.00816487
-0.0044026
-0.0071717
-0.00406559
-0.00622977
-0.0037735
-0.00533497
-0.00351897
-0.00448326
-0.00329602
-0.00367087
-0.00309983
-0.00289426
-0.00292607
-0.00215036
-0.00277106
-0.0014364
-0.0026321
-0.000749945
-0.00250708
-8.85777e-05
-0.00239394
0.000549247
-0.00229094
0.00116635
-0.00219999
0.00176389
-0.00211548
0.00234276
-0.00203625
0.00290437
-0.00196344
0.00344991
-0.00189646
0.00398044
-0.00183452
0.00449701
-0.00177728
0.00500045
-0.00172447
0.00549174
-0.00167538
0.00597169
-0.00162983
0.00644092
-0.00158755
0.00690032
-0.00154806
0.00735043
-0.00151195
0.00779188
-0.00147852
0.00822548
-0.00144761
0.00865158
-0.00141937
0.00907095
-0.00139285
0.00948402
-0.00136888
0.00989135
-0.00134705
0.0102936
-0.00132761
0.0106911
-0.00131027
0.0110846
-0.00129471
0.0114745
-0.00128132
0.0118614
-0.0012696
0.0122458
-0.00126067
0.0126284
-0.00125379
0.0130097
-0.0012492
0.0133904
-0.00124646
0.013771
-0.00124593
0.0141521
-0.00124762
0.0145345
-0.00125191
0.0149188
-0.00125869
0.0153055
-0.00126745
0.0156954
-0.00127864
0.0160892
-0.00129208
0.0164875
-0.00130839
0.0168913
-0.00132757
0.0173014
-0.00134978
0.0177187
-0.00137503
0.0181441
-0.001404
0.0185788
-0.00143604
0.0190235
-0.00147182
0.0194795
-0.001511
0.0199476
-0.00155388
0.0204293
-0.00160093
0.0209256
-0.00165231
0.0214377
-0.00170771
0.021967
-0.00176768
0.0225149
-0.00183226
0.0230828
-0.00190207
0.0236723
-0.00197712
0.024285
-0.0020578
0.0249225
-0.0021444
0.0255867
-0.00223719
0.0262796
-0.00233664
0.0270031
-0.0024429
0.0277592
-0.00255599
0.02855
-0.0026764
0.0293778
-0.00280502
0.0302452
-0.00294221
0.0311547
-0.00308806
0.0321092
-0.00324404
0.0331113
-0.00340952
0.0341645
-0.00358583
0.0352715
-0.00377281
0.036436
-0.00397208
0.0376611
-0.00418256
0.0389515
-0.00440784
0.0403096
-0.00464448
0.0417419
-0.00489989
0.0432494
-0.00516448
0.0448422
-0.00545545
0.046518
-0.00575153
0.0482922
-0.00608406
0.0501571
-0.0064118
0.0521375
-0.00679827
0.0542134
-0.00714931
0.056427
-0.00760872
0.0587389
-0.00797268
0.0612182
-0.0085392
0.0637948
-0.00889194
0.0665777
-0.00961711
0.0694564
-0.00993621
0.0725845
-0.010851
0.0758081
-0.011121
0.0793068
-0.0121588
0.082921
-0.0124781
0.0868114
-0.0135148
0.0908786
-0.0140974
0.0952025
-0.015012
0.0997898
-0.0159654
0.104609
-0.0167035
0.109628
-0.0174843
0.115137
-0.0189627
0.119978
-0.016508
0.126266
-0.0213988
0.128563
-0.00186834
0.00425097
-0.0203169
-0.0125135
0.0207503
-0.0196294
-0.0117261
-0.0187228
-0.0108642
-0.0176549
-0.00998605
-0.0164853
-0.00913875
-0.015265
-0.0083513
-0.0140318
-0.00763785
-0.0128116
-0.0070019
-0.0116202
-0.00644044
-0.0104666
-0.0059471
-0.00935495
-0.00551425
-0.00828639
-0.00513415
-0.00726027
-0.00479964
-0.00627487
-0.00450439
-0.00532797
-0.00424293
-0.00441712
-0.0040107
-0.00353974
-0.00380347
-0.00269347
-0.00361735
-0.00187611
-0.00344949
-0.00108561
-0.00329759
-0.000320042
-0.00315952
0.000422114
-0.00303309
0.00114358
-0.00292146
0.00184532
-0.00281722
0.00252793
-0.00271888
0.00319279
-0.00262829
0.00384105
-0.00254472
0.00447372
-0.0024672
0.00509179
-0.00239533
0.00569608
-0.00232879
0.00628752
-0.00226684
0.00686697
-0.00220923
0.00743503
-0.00215565
0.00799259
-0.00210558
0.00854022
-0.00205956
0.00907853
-0.0020169
0.00960837
-0.00197739
0.0101301
-0.00194116
0.0106446
-0.00190726
0.0111522
-0.0018765
0.0116536
-0.00184845
0.0121494
-0.00182342
0.0126401
-0.00180104
0.0131265
-0.00178104
0.0136089
-0.00176378
0.0140882
-0.00174879
0.0145647
-0.00173725
0.0150394
-0.00172842
0.0155127
-0.00172257
0.0159855
-0.0017192
0.0164583
-0.00171879
0.016932
-0.00172127
0.0174072
-0.00172714
0.0178848
-0.00173623
0.0183654
-0.00174804
0.0188498
-0.00176307
0.0193389
-0.00178119
0.0198336
-0.00180305
0.0203348
-0.00182876
0.0208435
-0.00185849
0.0213608
-0.00189233
0.0218879
-0.00193108
0.0224259
-0.00197403
0.022976
-0.00202194
0.0235395
-0.00207451
0.0241176
-0.00213203
0.0247119
-0.00219515
0.0253236
-0.00226404
0.0259543
-0.00233837
0.0266054
-0.00241888
0.0272789
-0.00250566
0.0279763
-0.00259948
0.0286995
-0.00270035
0.0294505
-0.00280877
0.0302313
-0.00292518
0.031044
-0.00304998
0.0318912
-0.00318377
0.032775
-0.00332673
0.0336979
-0.00347893
0.0346625
-0.00364101
0.0356716
-0.00381409
0.0367281
-0.00399872
0.0378351
-0.00419502
0.038996
-0.00440499
0.0402142
-0.00462771
0.0414936
-0.0048652
0.0428375
-0.00511676
0.0442507
-0.00538523
0.0457363
-0.00566817
0.0473003
-0.00597189
0.0489453
-0.00628946
0.0506797
-0.00663434
0.0525036
-0.00698832
0.0544304
-0.00738227
0.0564554
-0.00777656
0.0586
-0.0082286
0.0608503
-0.00866217
0.0632422
-0.0091901
0.0657439
-0.0096511
0.0684151
-0.0102799
0.071198
-0.0107556
0.0741859
-0.0115272
0.0772847
-0.0119907
0.0806317
-0.0129642
0.0840919
-0.0133964
0.0878442
-0.0146034
0.0917177
-0.0149945
0.0959069
-0.016348
0.100245
-0.0168161
0.104901
-0.0181712
0.10977
-0.0189658
0.114943
-0.0201856
0.120417
-0.021439
0.126184
-0.0224706
0.132159
-0.023459
0.138756
-0.0255605
0.144603
-0.0223544
0.152064
-0.0288604
0.155815
-0.00561891
0.001773
-0.020739
-0.0128872
0.0211127
-0.0201642
-0.0123008
-0.0193995
-0.0116289
-0.0184751
-0.0109105
-0.0174307
-0.0101832
-0.0163062
-0.00947583
-0.0151362
-0.00880786
-0.0139479
-0.0081902
-0.0127611
-0.00762725
-0.0115892
-0.00711896
-0.0104409
-0.00666258
-0.00932104
-0.00625398
-0.00823223
-0.00588848
-0.00717524
-0.0055614
-0.00614979
-0.00526838
-0.00515499
-0.00500552
-0.00418943
-0.00476907
-0.00325164
-0.00455518
-0.0023401
-0.00436106
-0.00145333
-0.00418438
-0.000589814
-0.00402303
0.000251521
-0.00387442
0.00107305
-0.00374299
0.00187588
-0.00362005
0.00266016
-0.00350318
0.00342712
-0.00339524
0.00417779
-0.00329538
0.00491306
-0.00320249
0.00563385
-0.00311609
0.0063409
-0.00303586
0.00703506
-0.00296103
0.00771717
-0.00289129
0.00838779
-0.00282632
0.00904779
-0.00276554
0.00969769
-0.00270945
0.0103381
-0.00265737
0.0109698
-0.00260908
0.0115933
-0.00256467
0.0122093
-0.00252322
0.0128183
-0.0024855
0.0134209
-0.00245108
0.0140178
-0.00242031
0.0146095
-0.00239277
0.0151968
-0.00236824
0.01578
-0.00234709
0.0163601
-0.00232884
0.0169376
-0.00231474
0.0175132
-0.00230405
0.0180877
-0.0022971
0.0186619
-0.00229334
0.0192365
-0.00229338
0.0198123
-0.00229705
0.0203901
-0.00230498
0.0209709
-0.00231697
0.0215554
-0.00233252
0.0221445
-0.0023522
0.0227392
-0.00237593
0.0233405
-0.00240438
0.0239496
-0.00243783
0.0245676
-0.00247642
0.0251956
-0.00252036
0.0258351
-0.00257059
0.0264874
-0.00262634
0.0271539
-0.00268846
0.0278361
-0.00275671
0.0285355
-0.00283141
0.0292537
-0.00291333
0.0299924
-0.00300271
0.0307532
-0.00309922
0.0315381
-0.00320377
0.032349
-0.00331657
0.0331881
-0.00343852
0.0340574
-0.00356967
0.0349592
-0.00371061
0.035896
-0.00386194
0.0368703
-0.00402429
0.0378849
-0.00419837
0.0389426
-0.00438442
0.0400462
-0.00458252
0.0411987
-0.00479352
0.0424034
-0.0050188
0.0436638
-0.00525912
0.0449834
-0.00551462
0.0463663
-0.00578793
0.0478164
-0.00607783
0.0493384
-0.00638717
0.0509361
-0.00671448
0.0526151
-0.00706427
0.0543791
-0.00743207
0.0562352
-0.00782803
0.0581858
-0.00824011
0.0602419
-0.00869043
0.0624018
-0.00914827
0.0646836
-0.00966398
0.0670784
-0.0101714
0.0696155
-0.0107657
0.0722728
-0.0113195
0.0750998
-0.0120171
0.0780496
-0.0126009
0.0812035
-0.0134337
0.08448
-0.0140321
0.0880026
-0.0150498
0.0916476
-0.0156356
0.0955842
-0.0169008
0.0996516
-0.0174637
0.104052
-0.0190034
0.108602
-0.0195447
0.113504
-0.0212498
0.11859
-0.021903
0.124036
-0.0236164
0.129725
-0.0246552
0.135771
-0.0262316
0.142145
-0.0278126
0.148881
-0.0292072
0.155819
-0.0303964
0.163513
-0.0332547
0.170406
-0.029248
0.178989
-0.0374432
0.18434
-0.0109694
-0.00251938
-0.0210889
-0.0132299
0.0214316
-0.020586
-0.0128038
-0.0199221
-0.0122928
-0.0191109
-0.0117218
-0.0181759
-0.0111182
-0.0171454
-0.0105063
-0.0160475
-0.00990577
-0.0149071
-0.00933062
-0.0137445
-0.00878976
-0.0125756
-0.00828787
-0.0114117
-0.00782644
-0.0102609
-0.00740486
-0.0091282
-0.00702117
-0.00801689
-0.00667274
-0.0069286
-0.00635669
-0.005864
-0.00607014
-0.00482297
-0.00581013
-0.003805
-0.00557317
-0.00280939
-0.00535669
-0.00183524
-0.00515853
-0.000881329
-0.00497693
5.55341e-05
-0.00481128
0.000968171
-0.00465562
0.00186707
-0.00451895
0.00274907
-0.00438519
0.003615
-0.00426117
0.00446576
-0.00414614
0.00530209
-0.00403884
0.00612477
-0.00393876
0.00693446
-0.00384555
0.0077319
-0.00375849
0.00851785
-0.0036772
0.00929284
-0.00360134
0.0100576
-0.00353034
0.0108128
-0.00346457
0.0115588
-0.00340343
0.0122964
-0.00334666
0.0130261
-0.00329436
0.0137485
-0.00324567
0.0144643
-0.00320126
0.0151739
-0.00316072
0.0158781
-0.00312446
0.0165773
-0.00309202
0.0172724
-0.00306326
0.0179638
-0.0030385
0.0186523
-0.00301734
0.0193385
-0.003001
0.0200233
-0.00298883
0.0207074
-0.00298119
0.0213916
-0.00297754
0.0220768
-0.00297857
0.0227638
-0.00298407
0.0234536
-0.00299475
0.024147
-0.00301039
0.0248451
-0.00303057
0.0255487
-0.00305586
0.0262592
-0.00308631
0.0269773
-0.00312257
0.0277046
-0.0031651
0.0284422
-0.00321404
0.0291916
-0.00326973
0.0299542
-0.00333325
0.0307317
-0.00340382
0.0315256
-0.00348235
0.0323376
-0.0035687
0.0331694
-0.00366323
0.034023
-0.00376685
0.0349
-0.00387983
0.0358027
-0.00400188
0.036733
-0.00413412
0.0376934
-0.0042769
0.0386861
-0.00443127
0.0397138
-0.00459729
0.0407789
-0.00477569
0.0418842
-0.00496727
0.0430328
-0.00517286
0.0442278
-0.00539338
0.0454725
-0.00562913
0.0467701
-0.00588019
0.0481242
-0.0061476
0.0495385
-0.00643305
0.0510169
-0.00673757
0.0525636
-0.00706129
0.0541833
-0.0074076
0.0558803
-0.0077749
0.0576602
-0.00816709
0.0595274
-0.00858162
0.0614884
-0.00902526
0.0635469
-0.00949058
0.0657119
-0.00999307
0.0679852
-0.0105134
0.0703805
-0.0110858
0.0728941
-0.0116618
0.0755492
-0.012319
0.0783317
-0.012954
0.0812808
-0.0137148
0.0843629
-0.0144016
0.0876453
-0.0152996
0.0910609
-0.0160165
0.0947182
-0.017091
0.0985061
-0.0178201
0.102583
-0.0191271
0.106793
-0.0198449
0.111337
-0.0214449
0.11603
-0.0221572
0.121092
-0.0240654
0.126337
-0.0247896
0.131963
-0.0268756
0.137811
-0.0277511
0.144056
-0.0298613
0.150571
-0.0311699
0.157496
-0.0331574
0.164765
-0.0350808
0.172472
-0.0369144
0.180359
-0.0382835
0.189127
-0.0420224
0.197086
-0.037207
0.206714
-0.0470719
0.213709
-0.0179645
-0.0088154
-0.0213965
-0.0135596
0.0217262
-0.020937
-0.0132633
-0.0203421
-0.0128877
-0.0196156
-0.0124484
-0.0187698
-0.011964
-0.017823
-0.0114531
-0.016796
-0.0109327
-0.0157095
-0.0104171
-0.0145822
-0.00991701
-0.0134301
-0.00943995
-0.012266
-0.00899057
-0.0110996
-0.00857121
-0.00993836
-0.00818249
-0.00878721
-0.00782391
-0.00764966
-0.00749426
-0.00652788
-0.00719194
-0.00542301
-0.00691501
-0.00433557
-0.00666063
-0.00326568
-0.00642659
-0.00221314
-0.00621106
-0.00117749
-0.00601256
-0.000158689
-0.00583007
0.000844822
-0.00565912
0.00183445
-0.00550858
0.00280902
-0.00535979
0.00376946
-0.00522161
0.0047165
-0.00509318
0.00565073
-0.00497308
0.00657278
-0.00486079
0.00748322
-0.00475598
0.00838266
-0.00465795
0.00927178
-0.00456628
0.010151
-0.00448064
0.0110211
-0.00440044
0.0118825
-0.00432595
0.0127357
-0.00425665
0.0135814
-0.00419227
0.0144199
-0.00413289
0.0152519
-0.00407774
0.0160781
-0.0040274
0.0168989
-0.0039815
0.0177149
-0.00394044
0.0185266
-0.0039038
0.0193349
-0.0038715
0.0201402
-0.00384384
0.0209434
-0.00382048
0.021745
-0.00380261
0.0225459
-0.00378969
0.0233468
-0.00378211
0.0241486
-0.00377937
0.0249523
-0.00378225
0.0257587
-0.00379047
0.0265688
-0.00380485
0.0273836
-0.00382518
0.0282041
-0.00385109
0.0290315
-0.0038832
0.0298669
-0.0039217
0.0307115
-0.00396719
0.0315667
-0.00402034
0.032434
-0.0040813
0.0333149
-0.00415058
0.034211
-0.00422937
0.0351241
-0.00431693
0.0360559
-0.00441422
0.0370085
-0.00452125
0.0379837
-0.00463839
0.0389836
-0.00476673
0.0400103
-0.00490657
0.0410661
-0.00505767
0.0421533
-0.00522138
0.0432747
-0.00539823
0.0444328
-0.00558944
0.0456306
-0.00579509
0.046871
-0.00601603
0.048157
-0.00625327
0.0494921
-0.00650798
0.05088
-0.00678125
0.0523243
-0.00707345
0.0538288
-0.00738469
0.0553974
-0.00771621
0.0570343