/*--------------------------------*- C++ -*----------------------------------*\
| =========                 |                                                 |
| \\      /  F ield         | OpenFOAM: The Open Source CFD Toolbox           |
|  \\    /   O peration     | Version:  2412                                  |
|   \\  /    A nd           | Website:  www.openfoam.com                      |
|    \\/     M anipulation  |                                                 |
\*---------------------------------------------------------------------------*/
FoamFile
{
    version     2.0;
    format      ascii;
    arch        "LSB;label=32;scalar=64";
    class       volScalarField;
    location    "0.225";
    object      Co;
}
// * * * * * * * * * * * * * * * * * * * * * * * * * * * * * * * * * * * * * //

dimensions      [0 0 0 0 0 0 0];

internalField   nonuniform List<scalar> 
12600
(
0.418284
0.18182
0.0756964
0.0353031
0.0199407
0.0130073
0.00902322
0.00640633
0.0045735
0.00324645
0.00226517
0.00152724
0.00096473
0.00053479
0.000253434
0.000248085
0.000398944
0.000509731
0.000588226
0.000643735
0.000678453
0.000698193
0.000705141
0.000702528
0.000692189
0.000675632
0.000654639
0.000629708
0.000602682
0.000576685
0.000548707
0.000519978
0.000490809
0.000461515
0.000433024
0.00040501
0.000377989
0.000352113
0.000327544
0.000304408
0.00028291
0.000263247
0.00024554
0.000229971
0.000216943
0.000208904
0.000204453
0.000202377
0.000201221
0.000198226
0.000189486
0.000180497
0.000164209
0.000138054
0.000103578
6.53099e-05
3.27121e-05
3.9278e-05
9.44018e-05
0.000192108
0.000322568
0.000375824
0.000356847
0.00027602
0.000202098
0.000191721
0.000164598
0.000245069
0.000535487
0.000859933
0.00106835
0.0011151
0.00105502
0.000943823
0.000691296
0.00039229
0.000158538
7.22769e-05
8.21803e-05
8.5352e-05
8.18598e-05
7.93606e-05
7.47939e-05
6.9308e-05
5.12915e-05
3.03626e-05
2.75733e-05
2.96561e-05
2.78812e-05
2.17041e-05
1.36424e-05
6.69641e-06
2.35327e-06
2.59018e-06
5.54289e-06
8.36587e-06
9.91446e-06
9.28694e-06
8.58444e-06
6.08014e-06
5.00994e-06
8.64138e-06
1.34904e-05
1.75858e-05
2.10568e-05
2.3385e-05
2.57538e-05
2.68731e-05
2.8694e-05
2.92218e-05
3.08871e-05
3.12049e-05
3.30112e-05
3.31792e-05
3.55708e-05
3.55153e-05
3.89708e-05
3.9921e-05
4.63737e-05
5.44322e-05
0.662474
0.446144
0.270985
0.161724
0.100864
0.0670921
0.0470273
0.0340549
0.0251003
0.0186504
0.0138704
0.010257
0.00748488
0.0053368
0.00366143
0.00235218
0.00132888
0.000721872
0.00078567
0.00114435
0.00140552
0.00159446
0.00172219
0.00180269
0.00184429
0.00185426
0.00183994
0.00180438
0.00175545
0.00169684
0.00162968
0.00156524
0.00149658
0.00142333
0.00134872
0.00127269
0.00119752
0.00112385
0.00105247
0.000984101
0.000919572
0.000859628
0.000804942
0.000756031
0.00071443
0.000692509
0.000679931
0.000673221
0.000666586
0.00065007
0.000613693
0.000589058
0.000542182
0.000464379
0.000358233
0.00023744
0.000128343
0.000142656
0.000324876
0.000659149
0.00108886
0.0012048
0.00114409
0.000926445
0.000629082
0.000590354
0.00055394
0.00103616
0.00215921
0.00310405
0.00356182
0.00347979
0.00325379
0.00300163
0.00228416
0.00135278
0.000584093
0.000286941
0.000299574
0.000289154
0.000271741
0.000260858
0.000245055
0.0002328
0.000182616
0.000118125
9.75e-05
8.65171e-05
8.25335e-05
6.46937e-05
3.93489e-05
1.65765e-05
3.98843e-06
5.9044e-06
1.32793e-05
2.03903e-05
2.16946e-05
1.8621e-05
1.62607e-05
1.86012e-05
3.14803e-05
4.89651e-05
6.3813e-05
7.59717e-05
8.59554e-05
9.25572e-05
9.94353e-05
0.000102627
0.000108306
0.000109876
0.000115428
0.000116407
0.000122641
0.000122982
0.000131724
0.000130402
0.000144107
0.000145015
0.000170018
0.000195787
0.726436
0.603533
0.449823
0.316198
0.218572
0.152989
0.109826
0.0807944
0.0605227
0.0458582
0.0349518
0.0266689
0.02028
0.0152953
0.0113728
0.00826891
0.00580119
0.00384698
0.00232084
0.00133205
0.00131932
0.00179686
0.00214792
0.00239931
0.00256788
0.00266831
0.00271575
0.00271631
0.00268574
0.00262616
0.00254682
0.00246131
0.00236947
0.00228199
0.00218581
0.00208245
0.00197599
0.00186815
0.00176092
0.0016559
0.00155471
0.00145884
0.0013698
0.00128847
0.00122152
0.00119146
0.00117441
0.00116412
0.00114853
0.00110869
0.00103929
0.00101296
0.00095325
0.000840926
0.00067392
0.000472946
0.00028168
0.000289847
0.00060965
0.00123492
0.00201215
0.00209802
0.00194718
0.00166504
0.0010531
0.00101249
0.00122545
0.00244801
0.00453649
0.00592959
0.00628471
0.00570286
0.00537193
0.00519797
0.00414719
0.00257629
0.00119909
0.000620794
0.000579716
0.000515221
0.00047006
0.000445089
0.000426077
0.000427143
0.000363403
0.000252161
0.000186693
0.000133398
0.000134918
0.000109048
6.59703e-05
3.39782e-05
1.73144e-05
1.82612e-05
2.20416e-05
2.50159e-05
2.0995e-05
1.80996e-05
2.92296e-05
5.61979e-05
8.74314e-05
0.000117412
0.000141105
0.00015977
0.000174835
0.000184156
0.000194973
0.000199195
0.00020897
0.000210844
0.000220958
0.000222026
0.000233715
0.000233365
0.000250759
0.000245451
0.000274959
0.000271092
0.000323287
0.000368362
0.719711
0.666088
0.566068
0.451122
0.34525
0.259408
0.194648
0.147201
0.112463
0.0866859
0.0672298
0.0523073
0.0407058
0.0315878
0.0243607
0.0185964
0.0139761
0.010269
0.00730888
0.00491579
0.00301338
0.00187932
0.0019059
0.00243057
0.00281306
0.00307768
0.00324941
0.00333877
0.00337185
0.00335293
0.0032975
0.00321394
0.00311205
0.00300764
0.00290886
0.00280333
0.00268747
0.00256322
0.00243424
0.00230375
0.00217454
0.00204912
0.00193004
0.00181846
0.00173584
0.00170118
0.00168188
0.00166775
0.00163896
0.00156653
0.00146836
0.0014529
0.00139685
0.00126531
0.00104676
0.000767119
0.000497261
0.000474387
0.000914751
0.00186834
0.00303911
0.00305038
0.00271822
0.00247451
0.00149967
0.00148955
0.00225784
0.00451428
0.00754262
0.00914812
0.00905298
0.0076632
0.00741256
0.00746688
0.00618331
0.00398547
0.00198579
0.00107836
0.000915499
0.000763327
0.000676837
0.00062907
0.000623485
0.000654405
0.000589437
0.000421678
0.000283761
0.000165059
0.000183331
0.000151892
9.50675e-05
6.09924e-05
4.1901e-05
4.33301e-05
4.34676e-05
2.80021e-05
7.92419e-06
3.1942e-05
7.62539e-05
0.000127476
0.000173257
0.000215152
0.000246176
0.00026971
0.00028844
0.000299168
0.000313347
0.000317825
0.000331813
0.000333511
0.000348698
0.000349518
0.000367379
0.000365739
0.000393499
0.000381745
0.000431611
0.000418106
0.000503881
0.000569185
0.691508
0.669796
0.616116
0.537541
0.448929
0.363409
0.288861
0.227774
0.179333
0.141423
0.111798
0.0885431
0.0701647
0.0555384
0.0438243
0.0343938
0.0267694
0.0205914
0.0155922
0.0115233
0.00823232
0.00556453
0.00342192
0.00231707
0.00246888
0.00298819
0.00336165
0.00360565
0.00375844
0.00382762
0.00383615
0.00379568
0.00371757
0.00361234
0.00350404
0.00338831
0.00328954
0.00317218
0.00304139
0.00290143
0.00275676
0.0026115
0.00246954
0.00233253
0.00224974
0.00221339
0.00219316
0.00217397
0.00212736
0.00201423
0.00189659
0.00190396
0.00186639
0.00172983
0.00146907
0.00111311
0.000763377
0.000674643
0.00120659
0.00250667
0.00410984
0.0040466
0.00339351
0.0033244
0.00198147
0.00204591
0.00362366
0.00715082
0.0110389
0.0125601
0.0116751
0.00923785
0.009345
0.00972284
0.00828824
0.00550112
0.0029129
0.00165232
0.00130132
0.00103284
0.00089101
0.000821487
0.000840932
0.000914571
0.000855804
0.000616513
0.000378601
0.000176854
0.000225574
0.000190384
0.000141034
0.000113201
7.93238e-05
7.94552e-05
8.25816e-05
6.28479e-05
4.15112e-05
9.25193e-05
0.000157972
0.000229524
0.000289706
0.00034268
0.000379632
0.000406531
0.000427788
0.000438805
0.000455942
0.000460008
0.000478332
0.000479378
0.000499963
0.000500127
0.000524631
0.000520995
0.000560484
0.000539812
0.000613835
0.000586065
0.000708897
0.000794316
0.662027
0.648604
0.620991
0.57443
0.512525
0.442901
0.373392
0.309365
0.253441
0.206226
0.167171
0.135213
0.109182
0.0879955
0.0707315
0.0566376
0.0451086
0.0356643
0.0279323
0.0215858
0.0163911
0.012137
0.00866831
0.00584771
0.00356618
0.00261915
0.00296046
0.00343918
0.00378032
0.00399623
0.00411868
0.00416386
0.0041489
0.00408791
0.0039908
0.00387437
0.00376682
0.00365662
0.00354743
0.00341878
0.00327564
0.00312407
0.00296972
0.00282399
0.00275521
0.00271937
0.00269877
0.00267288
0.0026043
0.00244438
0.00232013
0.00236155
0.002356
0.00222755
0.00193386
0.00150453
0.00107393
0.000874728
0.00145457
0.00310142
0.00516641
0.00507272
0.00391155
0.00418331
0.00251262
0.00270781
0.00532408
0.0102847
0.0148611
0.0159577
0.0139837
0.0103542
0.0111515
0.0119061
0.0103885
0.00706643
0.00392956
0.00231071
0.0017323
0.00132373
0.0011122
0.00103429
0.00108227
0.00120751
0.00115785
0.000827366
0.000462101
0.000164979
0.000259297
0.000232967
0.000203466
0.000182827
0.000132172
0.000126856
0.000133423
0.000109327
0.000104906
0.000183007
0.000271185
0.00036358
0.000437455
0.000500332
0.000541775
0.000570635
0.000593442
0.000603749
0.000623541
0.000626502
0.00064929
0.000649082
0.00067537
0.000674281
0.000705785
0.000699221
0.000751464
0.000719339
0.000820211
0.000774092
0.000934592
0.00103876
0.636818
0.622739
0.604892
0.577464
0.538157
0.488714
0.433441
0.376838
0.322406
0.272395
0.227947
0.189376
0.156459
0.128675
0.105386
0.0859444
0.0697532
0.0562886
0.0451127
0.0358372
0.0281562
0.021801
0.0165587
0.0122452
0.00870646
0.0058251
0.00348695
0.00278442
0.00335278
0.00378679
0.00408374
0.00426639
0.00435884
0.00438005
0.00434394
0.00426828
0.00416043
0.00405015
0.00393928
0.00382143
0.00370113
0.00356147
0.00341127
0.00329943
0.00324194
0.00320863
0.00318806
0.00315402
0.00306056
0.00285065
0.00273292
0.0028188
0.00285777
0.00275016
0.00243339
0.00193482
0.00142263
0.0011433
0.00170994
0.00360793
0.00614963
0.00610926
0.004207
0.00501236
0.00310216
0.00349673
0.0073466
0.0138204
0.0188277
0.0191393
0.0158498
0.0109881
0.0128095
0.0139675
0.0124286
0.00863918
0.0050069
0.00303805
0.00220475
0.00163632
0.00134014
0.00126855
0.00135035
0.00153217
0.00149094
0.00104576
0.000526566
0.000126532
0.000282078
0.000303785
0.000307725
0.00027134
0.000203456
0.000185597
0.000195484
0.000166617
0.000201359
0.0003052
0.000416819
0.000529872
0.000616471
0.000687986
0.000732669
0.000762239
0.000785838
0.000794508
0.000816734
0.000817826
0.000845146
0.000842911
0.000875001
0.000871825
0.000910408
0.000899713
0.000965259
0.000919219
0.00104824
0.000980799
0.00117648
0.00129637
0.615509
0.599524
0.583523
0.564277
0.538592
0.505263
0.46535
0.421094
0.37495
0.329102
0.285253
0.244581
0.207777
0.175121
0.146588
0.121949
0.100858
0.0829189
0.0677427
0.0549482
0.0442017
0.0351997
0.0276842
0.0214292
0.0162393
0.0119567
0.00842892
0.00556193
0.00352152
0.00310786
0.00365472
0.00403887
0.00429262
0.0044419
0.00450573
0.00450804
0.00445929
0.00437604
0.0042704
0.00416255
0.00405755
0.00394166
0.00382569
0.00374932
0.00369811
0.00366969
0.0036498
0.00360712
0.00348805
0.00322871
0.00312733
0.00326737
0.00336256
0.00328846
0.00295948
0.00239716
0.00180299
0.00148938
0.00196823
0.00398735
0.00700206
0.00713156
0.00421697
0.0057668
0.00375395
0.00442964
0.00966305
0.0176394
0.0227459
0.0219286
0.017202
0.0113247
0.0143069
0.015879
0.014378
0.010195
0.00612459
0.00382158
0.00271601
0.00197141
0.00157523
0.00152563
0.00164756
0.00188725
0.00185087
0.00130698
0.000605088
7.81607e-05
0.00032572
0.000412215
0.000434153
0.0003806
0.000296174
0.000255425
0.000268144
0.000247368
0.0003293
0.0004599
0.000594849
0.000727771
0.00082594
0.000904804
0.000951654
0.000980817
0.00100462
0.00101073
0.00103518
0.00103347
0.00106529
0.00105998
0.0010978
0.00109138
0.00113686
0.00112051
0.00119931
0.00113712
0.00129379
0.00120342
0.00142913
0.00155995
0.596718
0.579673
0.563316
0.546505
0.527069
0.50336
0.474926
0.442285
0.406479
0.368768
0.330427
0.292611
0.256285
0.222191
0.190836
0.16251
0.137303
0.115151
0.0958863
0.0792692
0.065036
0.052913
0.0426405
0.0339761
0.0266981
0.0206169
0.0155515
0.0113712
0.007929
0.00512652
0.0034912
0.00339627
0.00387904
0.00421384
0.00442583
0.00454661
0.00459139
0.00458142
0.00453234
0.00445893
0.0043744
0.00428877
0.00421089
0.00414974
0.00411037
0.00408987
0.0040724
0.00402232
0.0038799
0.00357607
0.00349348
0.00369689
0.00385962
0.00383215
0.00350325
0.00288439
0.00220821
0.00185397
0.00231749
0.00435293
0.00767031
0.00811002
0.00388656
0.00639664
0.0044649
0.00551592
0.0122258
0.0216046
0.0264242
0.0241948
0.0180338
0.0118588
0.0156361
0.0176264
0.0162233
0.0117237
0.00727012
0.00465146
0.00326441
0.00233035
0.00181865
0.00180829
0.00197559
0.00227118
0.00223394
0.00159659
0.000683114
4.57818e-05
0.000419297
0.000570333
0.000583418
0.000512529
0.000413007
0.000344257
0.000350483
0.000372401
0.000489013
0.000646295
0.000803799
0.00095541
0.00106402
0.00114904
0.00119726
0.00122503
0.00124861
0.00125116
0.00127764
0.00127194
0.00130806
0.00129833
0.00134151
0.00133034
0.00138211
0.00135832
0.00144952
0.00136941
0.00155117
0.00143772
0.00168616
0.00182139
0.57966
0.56228
0.545526
0.529192
0.512066
0.492978
0.471261
0.446743
0.419593
0.390232
0.35925
0.327318
0.295123
0.263329
0.23255
0.203319
0.176058
0.151061
0.12849
0.108379
0.0906682
0.0752229
0.0618668
0.0504016
0.0406213
0.0323316
0.0253392
0.0194873
0.0146112
0.0105827
0.00727619
0.00458669
0.00338343
0.00361712
0.00403833
0.00432889
0.00451007
0.00460892
0.00464648
0.00464172
0.0046108
0.00456679
0.00452126
0.00448463
0.00446334
0.00445545
0.00444391
0.00439025
0.0042304
0.00389181
0.00381892
0.00409463
0.00433622
0.00436943
0.00405481
0.0033886
0.00263087
0.00222628
0.0027756
0.00470923
0.00810864
0.00900834
0.00371717
0.00685094
0.00522421
0.00713645
0.0153457
0.0255645
0.0296875
0.0258666
0.0184007
0.0125655
0.0167923
0.019204
0.0179608
0.0132238
0.00843708
0.00552067
0.00384922
0.002715
0.00207265
0.00211837
0.00233549
0.00268236
0.00263718
0.00190309
0.000841684
0.000161347
0.000592011
0.000753186
0.000756269
0.000668677
0.000555838
0.000472252
0.000469669
0.000538061
0.000678881
0.000861761
0.00104055
0.00120943
0.00132749
0.00141765
0.00146673
0.00149223
0.00151529
0.00151319
0.00154139
0.00153027
0.00157025
0.0015544
0.00160224
0.00158447
0.0016415
0.00160825
0.00171008
0.00161094
0.00181315
0.00167767
0.00194023
0.0020721
0.564037
0.546639
0.529774
0.513549
0.497244
0.480139
0.461776
0.441925
0.420475
0.397442
0.372968
0.347286
0.320686
0.293504
0.266117
0.238937
0.212395
0.186909
0.162852
0.140515
0.1201
0.101705
0.0853395
0.0709433
0.0584011
0.0475714
0.038289
0.0303992
0.0237356
0.0181531
0.0135089
0.00967555
0.00653872
0.00402527
0.00325584
0.00378169
0.00415418
0.00440763
0.00456941
0.00466385
0.00471174
0.00473002
0.00473296
0.00473331
0.00473962
0.00475135
0.00475193
0.00470173
0.00453452
0.00417567
0.00408792
0.00444488
0.00477712
0.00488646
0.0046027
0.00390073
0.00306245
0.00259468
0.00320454
0.00523638
0.00858092
0.00978857
0.00409185
0.00707406
0.00601258
0.00899216
0.0186795
0.0293563
0.0323939
0.0269367
0.0183974
0.0131339
0.0177704
0.0206066
0.0195862
0.0146951
0.00962198
0.00642455
0.00447056
0.00312782
0.0023406
0.00245638
0.00272756
0.00311934
0.00305843
0.00222567
0.00102826
0.000315263
0.00079131
0.000960292
0.000953079
0.000849852
0.000725298
0.000638998
0.000639482
0.000731475
0.000895079
0.00110159
0.00130006
0.00148469
0.00161149
0.00170596
0.00175575
0.0017782
0.00180059
0.00179257
0.00182213
0.00180383
0.001847
0.00182302
0.00187443
0.00184792
0.00190868
0.0018639
0.00197357
0.00185505
0.00207133
0.00191567
0.00218331
0.00230358
0.549685
0.532377
0.515564
0.499462
0.483563
0.467382
0.45065
0.433234
0.415029
0.395962
0.376021
0.35524
0.333675
0.311399
0.288517
0.265178
0.241596
0.218043
0.194844
0.172342
0.15087
0.130718
0.112108
0.0951815
0.079997
0.0665467
0.0547622
0.0445463
0.0357695
0.0282982
0.0219907
0.0167098
0.0123257
0.00871236
0.00576637
0.00380314
0.00344221
0.00390924
0.00424434
0.00447851
0.00463818
0.00474528
0.00481784
0.00487184
0.00491868
0.00496051
0.00498281
0.00494694
0.00478663
0.00442653
0.00428069
0.00472816
0.00516371
0.00536656
0.00513326
0.00440999
0.00349301
0.00294636
0.00358273
0.00585953
0.00900648
0.0104051
0.00471597
0.00701108
0.00680229
0.0110057
0.022077
0.0328198
0.0344517
0.0274559
0.0181333
0.0135572
0.0185634
0.0218238
0.0210872
0.0161313
0.0108198
0.00735998
0.00512924
0.0035717
0.00262702
0.00282097
0.00315122
0.00358083
0.00349645
0.00256454
0.0012352
0.000497825
0.00101548
0.00119079
0.00117345
0.00105566
0.000920395
0.000831525
0.000839915
0.000947575
0.00113145
0.00135889
0.00157523
0.00177405
0.00190921
0.00200741
0.00205812
0.00207681
0.00209853
0.00208321
0.00211364
0.0020862
0.00213159
0.00209727
0.0021508
0.00211325
0.00217578
0.00211748
0.00223146
0.00209389
0.00231678
0.00214325
0.00240726
0.00250832
0.536452
0.519278
0.502584
0.486638
0.47104
0.455416
0.439587
0.423495
0.40708
0.390286
0.373092
0.355499
0.337508
0.319103
0.300253
0.280932
0.261138
0.240924
0.220408
0.199779
0.179288
0.159225
0.139892
0.121573
0.104501
0.088849
0.0747125
0.0621246
0.0510556
0.041437
0.0331672
0.0261276
0.0201921
0.0152292
0.0111206
0.00774614
0.00500303
0.00356723
0.00359517
0.004022
0.00433694
0.00456833
0.00473913
0.00486973
0.00497542
0.00506245
0.00512039
0.00511384
0.0049788
0.00463992
0.00437169
0.00492001
0.00547291
0.00578918
0.00562975
0.00490329
0.00391076
0.00326724
0.00388855
0.0063648
0.00983596
0.0114
0.00539038
0.00661104
0.00755733
0.013112
0.0254154
0.0358172
0.0358226
0.0275135
0.0177045
0.0138302
0.019162
0.0228397
0.0224412
0.0175138
0.0120196
0.00832397
0.00582645
0.00404988
0.00293747
0.00320831
0.00360467
0.00406574
0.00395088
0.00292085
0.00146448
0.00070705
0.00126251
0.00144302
0.00141587
0.0012842
0.00113827
0.00104557
0.00105933
0.00117901
0.00137961
0.00162464
0.00185694
0.00206845
0.00221196
0.0023135
0.00236572
0.00238007
0.00240124
0.00237721
0.00240792
0.0023693
0.00241571
0.0023688
0.00242274
0.00237186
0.00243395
0.00236038
0.00247475
0.00231904
0.00254096
0.00235211
0.00260477
0.00268073
0.524213
0.507191
0.490646
0.474865
0.459524
0.444308
0.429083
0.413819
0.398483
0.383035
0.36746
0.351773
0.335994
0.320123
0.304127
0.287941
0.27148
0.254665
0.237439
0.219797
0.201799
0.183576
0.165326
0.147298
0.129767
0.113009
0.097269
0.0827404
0.0695502
0.0577606
0.0473719
0.0383354
0.0305685
0.0239624
0.0184036
0.0137691
0.00994363
0.00681736
0.00429109
0.00334961
0.00373759
0.0041409
0.0044488
0.00468751
0.00487765
0.00503112
0.00514376
0.00518596
0.00509816
0.00480673
0.00435676
0.00498914
0.0056759
0.00612864
0.00607137
0.00536463
0.00430177
0.00354199
0.00410046
0.00672077
0.0106507
0.0123021
0.00607493
0.00583022
0.00823575
0.0152362
0.0285683
0.0382369
0.0365191
0.0272128
0.0171738
0.0139469
0.0195573
0.0236359
0.0236183
0.0188111
0.0132027
0.00931106
0.00656315
0.00456549
0.00327822
0.00361124
0.00408434
0.00457294
0.00442221
0.00329665
0.0017189
0.000940471
0.00152967
0.00171429
0.00167744
0.00153187
0.00137407
0.00127464
0.0012896
0.00141639
0.00162939
0.00188822
0.0021346
0.00235731
0.00250952
0.0026142
0.00266888
0.00267843
0.00269933
0.00266522
0.00269559
0.00264386
0.00268992
0.00262837
0.00268094
0.0026147
0.00267422
0.00258402
0.00269509
0.00252261
0.0027367
0.00253536
0.00277047
0.00281795
0.512862
0.496003
0.479618
0.463997
0.44888
0.433991
0.419216
0.404543
0.389947
0.375391
0.360854
0.346349
0.33191
0.317566
0.303328
0.28917
0.275031
0.260817
0.246416
0.23172
0.216643
0.201146
0.185249
0.169041
0.152678
0.136376
0.120388
0.104984
0.0904152
0.0768938
0.06457
0.053527
0.0437857
0.0353116
0.0280358
0.0218607
0.0166781
0.0123751
0.00884125
0.00597278
0.00388938
0.0033843
0.00388201
0.00427218
0.0045822
0.00483143
0.00502419
0.00513937
0.0051243
0.00490735
0.00440759
0.00489848
0.00573631
0.00635245
0.0064319
0.0057744
0.00464982
0.00375424
0.00419738
0.00689645
0.0112491
0.0136896
0.0074644
0.00463506
0.00878437
0.0172977
0.0314117
0.039999
0.0365949
0.0266473
0.0165667
0.0139001
0.0197427
0.0241961
0.0245889
0.0199838
0.0143418
0.0103113
0.00733863
0.0051213
0.0036558
0.00401828
0.00458406
0.00510074
0.00491151
0.00369474
0.00200196
0.0011952
0.00181347
0.00200077
0.00195382
0.00179342
0.00162119
0.00151059
0.00152119
0.00164911
0.00186967
0.0021383
0.00239703
0.00262961
0.0027912
0.00289893
0.00295728
0.00296168
0.00298272
0.00293739
0.00296677
0.00290035
0.00294467
0.00286692
0.00291648
0.00283338
0.00288861
0.00278102
0.00288586
0.00269841
0.00289929
0.00268865
0.00290189
0.00292036
0.502309
0.485613
0.469391
0.453926
0.439004
0.424386
0.40997
0.395749
0.381706
0.367804
0.354013
0.340331
0.326781
0.313401
0.300226
0.287275
0.274536
0.261967
0.249488
0.236991
0.224355
0.211457
0.198196
0.18451
0.17039
0.155894
0.141143
0.126326
0.111682
0.0974715
0.0839523
0.0713471
0.059823
0.0494788
0.0403507
0.0324178
0.0256199
0.019869
0.0150634
0.0110957
0.00785993
0.0052542
0.00368973
0.00355076
0.00402941
0.00441448
0.00472096
0.00493907
0.00502593
0.00491498
0.00452293
0.00459683
0.00560766
0.00641893
0.0066776
0.00610839
0.00493631
0.00388692
0.00415952
0.00686238
0.0115862
0.0150672
0.0090517
0.00300518
0.00962299
0.0196448
0.0338311
0.0410576
0.0361293
0.0258853
0.0158777
0.0136803
0.0197152
0.0245094
0.0253285
0.0209936
0.0154056
0.01131
0.00814872
0.00571936
0.00407608
0.00441258
0.00509387
0.00564597
0.00541997
0.00411844
0.00231786
0.00146829
0.00210992
0.00229761
0.00223943
0.00206229
0.00187182
0.00174424
0.00174388
0.0018664
0.00208964
0.00236431
0.00263401
0.00287536
0.00304729
0.0031581
0.00322145
0.00322051
0.00324211
0.00318474
0.00321249
0.00313034
0.0031717
0.00307685
0.00312219
0.00302143
0.00307142
0.00294638
0.00304325
0.00284309
0.00302729
0.00281083
0.00300001
0.00299142
0.492477
0.475939
0.459879
0.444562
0.429815
0.415426
0.401304
0.387442
0.373832
0.360437
0.347222
0.334171
0.321289
0.308602
0.296144
0.283948
0.272039
0.260419
0.249065
0.237921
0.2269
0.21589
0.204765
0.193401
0.181687
0.169546
0.156948
0.143924
0.130571
0.117058
0.103604
0.0904639
0.077896
0.0661299
0.0553452
0.0456556
0.0371093
0.0296971
0.0233664
0.0180355
0.0136066
0.00997452
0.00703488
0.00468846
0.00355733
0.00371107
0.00417596
0.00453447
0.00475696
0.00478565
0.00453522
0.00419245
0.00522989
0.00627384
0.00676406
0.00633595
0.00514008
0.00392283
0.00396826
0.0065894
0.0116114
0.0160627
0.0113754
0.00182289
0.0103158
0.0218141
0.035726
0.0413997
0.0352108
0.0249661
0.0150836
0.0132777
0.0194736
0.0245698
0.0258202
0.0218097
0.0163656
0.0122895
0.008984
0.00635881
0.00454288
0.00477136
0.00559847
0.00620252
0.00594801
0.00457112
0.00267119
0.00175727
0.00241493
0.00259941
0.0025279
0.00233122
0.00211769
0.00196645
0.00194806
0.00205878
0.00228035
0.00255798
0.00283796
0.00308744
0.0032709
0.00338492
0.00345457
0.0034482
0.00347072
0.00340085
0.00342636
0.00332808
0.00336549
0.00325342
0.00329392
0.00317558
0.00322022
0.00307852
0.00316696
0.00295673
0.00312274
0.00290403
0.00306896
0.00303695
0.483296
0.466911
0.451009
0.435833
0.421244
0.407053
0.393177
0.379611
0.366347
0.353355
0.340598
0.328052
0.315709
0.303576
0.291675
0.280033
0.26868
0.257642
0.246931
0.236538
0.226429
0.216543
0.206792
0.197065
0.18724
0.177192
0.166807
0.155998
0.144717
0.132978
0.120859
0.108506
0.0961233
0.0839545
0.072255
0.0612611
0.0511637
0.0420903
0.0341005
0.0271933
0.0213208
0.0164035
0.0123443
0.00903986
0.00638859
0.00429441
0.00350291
0.00385371
0.0042522
0.00445772
0.00438611
0.00397865
0.00452746
0.00584609
0.00663095
0.00641624
0.00523644
0.00384574
0.00379408
0.00604796
0.0112664
0.0165846
0.0138024
0.00202782
0.0112997
0.0236367
0.0370146
0.041041
0.0339212
0.0239035
0.014157
0.0126855
0.0190165
0.0243745
0.026052
0.0224105
0.017202
0.0132327
0.00982858
0.00703424
0.00505656
0.00506654
0.00607569
0.00675914
0.00649403
0.00505544
0.00306647
0.00206066
0.00272507
0.00290088
0.00281274
0.00259299
0.00235103
0.0021692
0.00212596
0.00221934
0.00243607
0.00271487
0.00300532
0.00326296
0.00345934
0.00357685
0.00365392
0.00364212
0.00366574
0.00358326
0.00360594
0.00349169
0.00352449
0.00339583
0.00343144
0.00329638
0.00333636
0.00317953
0.00326012
0.00304267
0.00319068
0.002973
0.00311505
0.00306393
0.474708
0.458469
0.442718
0.427677
0.413232
0.399215
0.38555
0.37223
0.359251
0.346585
0.334199
0.322064
0.310163
0.298494
0.28706
0.275878
0.264969
0.254359
0.244071
0.23412
0.224509
0.215221
0.206216
0.197432
0.188784
0.180167
0.171463
0.162552
0.153318
0.143667
0.133543
0.122943
0.111928
0.100623
0.0892139
0.0779331
0.0670329
0.056756
0.0473048
0.0388184
0.031365
0.0249478
0.01952
0.0150028
0.0113009
0.00831384
0.00593891
0.00405809
0.00347132
0.00384849
0.00400058
0.00381304
0.00362598
0.0050381
0.00619339
0.00629103
0.0051944
0.00364042
0.00401896
0.0052107
0.0104863
0.0165506
0.0158821
0.00397609
0.0122329
0.0250014
0.0376366
0.0400195
0.0323253
0.022694
0.0130754
0.0119048
0.0183419
0.0239223
0.0260144
0.0227797
0.0179022
0.0141267
0.0106615
0.00773474
0.00561244
0.00526768
0.00649576
0.00729761
0.00705236
0.00557197
0.0035071
0.00237826
0.00303816
0.00319761
0.00308807
0.00284122
0.00256546
0.0023466
0.00227273
0.00234484
0.00255521
0.00283496
0.00313706
0.00340365
0.00361445
0.00373591
0.00382128
0.00380416
0.00382888
0.00373392
0.00375324
0.00362358
0.00365142
0.00350726
0.0035384
0.00338808
0.00342451
0.00325458
0.00332854
0.0031066
0.00323785
0.00302383
0.00314527
0.00307904
0.46666
0.450559
0.434954
0.420041
0.405727
0.391865
0.378384
0.365275
0.352534
0.340138
0.328056
0.316257
0.304723
0.293441
0.282408
0.271625
0.261104
0.250861
0.240915
0.231288
0.221994
0.21304
0.204421
0.196116
0.188082
0.180261
0.172572
0.164917
0.157186
0.149264
0.141034
0.132403
0.123307
0.113729
0.103713
0.0933627
0.0828476
0.0723881
0.0622346
0.0526347
0.0437993
0.0358758
0.0289378
0.0229908
0.0179899
0.0138583
0.0105025
0.00780517
0.00563112
0.00387745
0.0032712
0.00335676
0.00300992
0.00372607
0.00533301
0.00587136
0.00497073
0.00329343
0.00440131
0.00456835
0.00919237
0.0158568
0.0173809
0.00669674
0.0127199
0.0258029
0.0375555
0.0383876
0.030465
0.0213232
0.011826
0.0109459
0.0174499
0.0232134
0.0256987
0.0229656
0.0185173
0.0149641
0.0114613
0.00844386
0.00619982
0.00534814
0.00682192
0.00779063
0.00761061
0.00611731
0.00399404
0.00271063
0.00335342
0.00348665
0.00334927
0.00307095
0.0027566
0.00249555
0.00238696
0.00243593
0.00264026
0.00292224
0.00323791
0.0035148
0.00374148
0.00386752
0.00396182
0.00393964
0.00396534
0.00385826
0.00387376
0.00372952
0.00375224
0.00359394
0.00362118
0.00345731
0.00349139
0.00331047
0.00337912
0.00315497
0.00327116
0.00306249
0.00316581
0.00308761
0.459105
0.443135
0.427668
0.412877
0.398685
0.384963
0.371644
0.358718
0.346181
0.334012
0.322181
0.310661
0.299431
0.288475
0.277782
0.267347
0.257171
0.24726
0.237625
0.228282
0.219247
0.210534
0.20215
0.194097
0.186364
0.178926
0.171746
0.164764
0.15791
0.151093
0.144211
0.137153
0.12981
0.122086
0.113911
0.105259
0.0961532
0.0866825
0.0769994
0.0673141
0.0578718
0.0489206
0.0406759
0.0332908
0.026845
0.0213485
0.0167609
0.0129957
0.00993586
0.00739155
0.00516125
0.00333192
0.00246318
0.0023536
0.0038813
0.00501984
0.00449221
0.00280241
0.00447717
0.00468421
0.00734108
0.0144005
0.0180237
0.0092995
0.0126213
0.0259633
0.0367775
0.0362067
0.0283594
0.0197709
0.0104058
0.00982508
0.0163448
0.0222496
0.0250971
0.0232179
0.0193177
0.0157403
0.0122109
0.00914155
0.0068024
0.00529424
0.00701491
0.00820039
0.00814654
0.00668149
0.00452453
0.00305744
0.0036707
0.00376657
0.0035933
0.00327891
0.00292229
0.00261576
0.00247054
0.00249659
0.00269667
0.00298312
0.0033145
0.0036032
0.00384694
0.00397829
0.00408194
0.00405515
0.00408174
0.00396312
0.00397451
0.00381665
0.00383422
0.00366314
0.00368702
0.00351127
0.00354391
0.00335387
0.00341824
0.00319355
0.00329623
0.0030937
0.00318112
0.00309312
0.452
0.436155
0.42082
0.406144
0.392067
0.378472
0.365298
0.352533
0.340172
0.328196
0.316579
0.305293
0.294317
0.283634
0.27323
0.263095
0.253222
0.24361
0.234262
0.225187
0.216395
0.207898
0.199707
0.19183
0.18427
0.177023
0.170076
0.163404
0.156971
0.150724
0.144599
0.138515
0.132378
0.126083
0.119526
0.112613
0.10527
0.0974595
0.0891933
0.0805446
0.0716516
0.0627105
0.0539564
0.0456325
0.0379565
0.0310883
0.0251176
0.0200547
0.0158489
0.0123564
0.00938797
0.00666579
0.00394434
0.0018477
0.00172352
0.00350788
0.00362781
0.00213499
0.00415607
0.00497465
0.005082
0.0121016
0.0175306
0.0114366
0.0118441
0.0254543
0.0352979
0.0335427
0.0260109
0.0180123
0.00881826
0.00855635
0.0150367
0.0210367
0.0242051
0.0232571
0.0200651
0.0164523
0.0129009
0.00980791
0.0074
0.00553209
0.00704425
0.00848073
0.00862533
0.00724468
0.00509012
0.00341469
0.00398842
0.00403674
0.00381863
0.00346334
0.00306217
0.00270928
0.00252779
0.0025328
0.00273117
0.00302443
0.00337324
0.00367493
0.00393646
0.0040738
0.00418708
0.00415635
0.00418383
0.00405453
0.00406174
0.0038913
0.00390383
0.00372123
0.00374207
0.0035559
0.00358761
0.00338993
0.00345057
0.0032264
0.00331678
0.00312043
0.00319375
0.00309737
0.445309
0.429581
0.414371
0.399807
0.385836
0.372358
0.359315
0.346694
0.334488
0.32268
0.311245
0.300158
0.289397
0.278945
0.268786
0.258907
0.249298
0.239951
0.230865
0.222041
0.213482
0.205196
0.197192
0.189477
0.182058
0.174938
0.168118
0.161589
0.155338
0.149341
0.143565
0.137963
0.132477
0.127037
0.121554
0.115934
0.110078
0.103893
0.0973034
0.0902665
0.0827848
0.0749183
0.0667883
0.0585731
0.0504933
0.0427841
0.0356655
0.0293013
0.0237854
0.0190974
0.01513
0.0116432
0.00834687
0.00501688
0.0017079
0.00121321
0.00210689
0.00117454
0.00336267
0.00475047
0.00412654
0.00892112
0.0157266
0.0127404
0.0104217
0.024276
0.0330955
0.0304636
0.0234163
0.0160248
0.00707028
0.00714593
0.0135378
0.0195835
0.0231916
0.0232371
0.0207409
0.017096
0.0135264
0.010427
0.00797483
0.00610462
0.00690029
0.00858583
0.00899947
0.00777453
0.00567191
0.00382136
0.00430083
0.00429576
0.0040248
0.00362381
0.00317724
0.00277948
0.0025641
0.00255093
0.00275004
0.00305181
0.00341887
0.00373413
0.00401369
0.00415759
0.00428065
0.00424684
0.00427535
0.00413644
0.00413962
0.00395776
0.00396543
0.00377246
0.0037904
0.00359509
0.00362593
0.00342177
0.00347877
0.0032558
0.00333473
0.00314419
0.00320482
0.00310106
0.438996
0.42338
0.408289
0.393831
0.379961
0.366591
0.353668
0.341176
0.329108
0.317448
0.306171