/*--------------------------------*- C++ -*----------------------------------*\
| =========                 |                                                 |
| \\      /  F ield         | OpenFOAM: The Open Source CFD Toolbox           |
|  \\    /   O peration     | Version:  2412                                  |
|   \\  /    A nd           | Website:  www.openfoam.com                      |
|    \\/     M anipulation  |                                                 |
\*---------------------------------------------------------------------------*/
FoamFile
{
    version     2.0;
    format      ascii;
    arch        "LSB;label=32;scalar=64";
    class       surfaceScalarField;
    location    "0.225";
    object      ddtCorrDdt0(phi);
}
// * * * * * * * * * * * * * * * * * * * * * * * * * * * * * * * * * * * * * //

dimensions      [0 3 -2 0 0 0 0];

oriented        oriented;

internalField   nonuniform List<scalar> 
24930
(
-0.0205613
-0.0176871
0.0358802
-0.00847914
-0.00748149
-0.00150297
-0.00198634
0.000848729
-0.00158597
3.2184e-06
-0.00157992
-0.0002674
0.000242112
0.00020351
0.000442495
0.000113741
-0.000489541
-0.000328041
-0.00105261
-0.000939639
-0.00172632
-0.00143106
-0.00259613
-0.00160032
-0.00270963
-0.00149796
-0.00228984
-0.00157117
-0.00255468
-0.0019678
-0.00381526
-0.00218612
-0.0043739
-0.00137391
-0.00246196
0.000511356
0.00169626
0.00212925
0.00507229
0.00254514
0.00462425
0.00159616
0.00190316
0.000589423
0.000722887
0.00128292
0.00244339
0.00363171
0.00624332
0.0048008
0.0100474
0.00204122
0.00636987
-0.0020655
-0.0113813
0.00608939
-0.0300726
-0.00594146
-0.0101231
-0.0269552
0.0262674
0.0476935
-0.019624
-0.0395834
-0.0101215
0.0272019
0.00490903
0.00524109
-0.0812964
-0.0204129
0.010059
-0.000594158
0.00282499
0.00621798
0.0150144
0.00425803
0.0250477
0.00126744
0.0069816
0.00596807
-0.00384253
0.0119686
0.0165821
-0.00276245
0.0257023
0.0116066
0.0141322
0.0225045
-0.0717482
-0.0211938
-0.111852
0.000662611
-0.0185245
0.00328251
-0.0237654
0.0063573
-0.00781336
0.0087236
-0.00762761
0.0011874
0.00261849
0.0146333
0.0724627
0.00397233
0.0292912
-0.0048338
0.0182693
-0.0142686
0.00511082
-0.0183246
0.00973155
-0.0184202
0.0122714
-0.0171563
0.0113604
-0.0207732
0.00208878
-0.0202589
-0.00754862
-0.0126066
-0.0213252
0.00555099
-0.0275384
0.0226987
-0.005824
0.0330624
0.00524514
0.0277224
-0.00739131
0.0250468
-0.00145956
0.0397229
0.0178186
0.0691137
0.0276344
0.0868426
0.0251241
0.083553
0.00473245
0.0485351
-0.00333915
0.004478
0.0124537
-0.0394867
-0.0194003
-0.0836412
-0.0576085
-0.114209
-0.0415195
-0.106041
-0.0277262
-0.0709233
-0.0285139
-0.0345093
-0.0184853
-0.00554155
-0.000410239
0.00809674
-0.00117839
0.00859504
0.0241146
0.00361147
0.0231398
0.00293653
0.0132823
0.0105321
0.00617223
0.0235384
0.00736324
0.0291439
0.00277899
0.0190467
-0.00121698
0.00490864
-0.00426629
-0.0106054
-0.0458189
-0.0112089
-0.0353647
-0.00930081
-0.0159723
-0.00736471
0.000821871
-0.00365826
0.00758231
0.00168646
0.0143326
0.00531365
0.014094
0.00712784
0.0175692
0.00546004
0.0191163
0.00217879
0.0214225
-0.00341922
0.00749562
-0.0083958
-0.00516457
-0.0116872
-0.010597
-0.0128869
-0.0132105
-0.0135798
-0.0137836
-0.0124673
-0.0122218
-0.0103726
-0.00734872
-0.0082068
-0.00104206
-0.00667384
0.00262111
-0.00485072
0.00281599
-0.00433694
0.00812895
-0.00368678
0.00679965
-0.00354309
0.00960125
-0.00328344
0.00486447
-0.00431713
0.00399634
-0.00527479
-0.000826326
-0.00522672
-0.00529608
-0.00523639
-0.00259873
-0.00671926
-0.00140632
-0.00838918
-0.000806882
-0.00786702
-0.00710092
-0.0102419
-0.000913166
0.00517489
-0.0368623
-0.0271413
0.0356901
-0.027178
-0.0216005
-0.0165848
-0.0144444
-0.0090608
-0.00976098
-0.00655614
-0.00759759
-0.00496123
-0.00493124
-0.00339942
-0.00251614
-0.00288049
-0.00143788
-0.00302304
-0.000980854
-0.00316714
-0.00108799
-0.0030993
-0.00143717
-0.00282632
-0.00100542
-0.00265795
0.000329332
-0.00287088
0.00137927
-0.00311987
0.000955162
-0.00254901
-0.000466636
-0.000914345
-0.00131752
0.000835152
-3.11679e-05
0.0021975
0.00138239
0.00225472
0.00162018
0.00148175
0.000528069
0.00139439
-0.00075503
0.00331687
-0.00251475
0.00587732
-0.00288759
0.00531475
0.00251878
0.000750344
0.00726369
-0.00111586
-0.0056105
0.00493431
-0.0172835
-0.00749972
-0.01422
-0.0132516
-0.000589708
0.0341248
0.00735794
-0.0318903
-0.0527977
0.0272308
0.0422115
-0.000740825
-0.0697774
-0.0140574
0.0555427
0.00700697
-0.00512901
0.0102307
0.00327687
0.00714883
0.0292704
0.00627351
0.00926311
0.0138551
-0.0137024
0.0182177
0.00812754
0.00581652
-0.022504
0.0220916
0.0234781
0.0249538
-0.0630791
-0.00458044
-0.120108
0.0165019
-0.00976702
0.0187783
-0.027841
0.0219604
-0.00428851
0.0223949
-0.00104552
0.013588
-0.0130312
0.0159962
0.0921756
-0.00451391
0.0249866
-0.0249593
0.0275364
-0.0454356
0.0184436
-0.056336
0.0214047
-0.0584203
0.0162415
-0.0511608
0.00505548
-0.0485064
-0.00801118
-0.0364896
-0.0170336
-0.0161212
-0.0326191
0.0224331
-0.0548874
0.0723647
-0.0594089
0.104605
-0.0241569
0.0922674
-0.00708645
0.0858612
-0.00300684
0.127233
-0.0282945
0.22243
-0.0800295
0.257949
-0.0223001
0.242361
0.00462868
0.145074
0.0622218
0.006762
0.14998
-0.133754
0.144482
-0.264758
0.0922664
-0.346638
0.0800942
-0.320226
-0.0159202
-0.219359
-0.0971408
-0.115935
-0.104564
-0.0348094
-0.068811
0.00895643
-0.0444265
0.0188152
-0.00979643
0.0110859
0.0119776
0.0108306
0.00986198
0.0359868
-0.0286878
0.0752186
-0.0395394
0.0900218
-0.0191139
0.0610838
0.016843
0.0146178
0.0468873
-0.0243372
0.00707706
-0.0327401
0.00942372
-0.0302593
-0.00359803
-0.0230433
-0.00498396
-0.011824
-0.00782705
0.0034794
-0.00532439
0.0134677
-0.00803331
0.0166664
0.000214823
0.0108006
0.00993736
-0.000674297
0.0275244
-0.0160248
0.0177395
-0.0306972
0.0128718
-0.0378729
0.00579057
-0.0429905
0.00273589
-0.0433538
-0.00135269
-0.0399542
-0.00511933
-0.0345332
-0.00618823
-0.0287906
-0.00511126
-0.0245198
-0.00252346
-0.0202376
-0.00417442
-0.0186758
-0.000241048
-0.0169355
-0.000343838
-0.0170389
0.00320324
-0.0165974
0.000320165
-0.0185672
0.00240562
-0.0200257
0.00174524
-0.0215048
0.000977436
-0.0222903
-0.000604701
-0.0257341
0.00386661
-0.0304081
0.00751922
-0.0303016
-0.00292674
-0.0394487
0.00896457
0.0169799
-0.0422292
-0.0260485
0.0354991
-0.0386075
-0.0250552
-0.0311001
-0.0213696
-0.0228533
-0.0171441
-0.0175048
-0.0139217
-0.0133964
-0.0106319
-0.0101968
-0.00726121
-0.00847973
-0.00504916
-0.0077813
-0.00396335
-0.00719701
-0.00351996
-0.00632815
-0.00322073
-0.00540665
-0.002353
-0.00497224
-0.000749685
-0.00519446
0.000921036
-0.00527535
0.00174864
-0.00412325
0.00156546
-0.00163508
0.000888875
0.00079124
0.000862937
0.00183825
0.000704724
0.00150496
0.000227476
0.000937144
-0.000150358
0.00148211
-0.000231759
0.00455125
-0.00347383
0.00767576
-0.00875838
0.0052043
-0.00682601
-0.0020471
0.0017304
-0.000621208
0.000234465
0.00148196
0.000491055
-0.00874267
-0.0106002
0.00799771
-0.0218103
0.00633875
0.00931881
-0.0132051
-0.0479783
0.0188542
0.0289186
-0.00613641
-0.0402719
-0.00280525
0.0898083
0.014674
-0.0103036
0.014377
-0.00505152
0.010307
0.0300935
0.0115107
0.0126208
0.022063
-0.018692
0.0248133
-0.00519335
0.0156367
-0.0699505
0.0319302
0.0263169
0.0219978
-0.0660374
0.0199891
-0.0608661
0.0317106
-0.0387863
0.0338769
-0.0326371
0.036463
0.000912603
0.0343574
0.0121911
0.025266
-0.013881
0.0122917
0.0765451
-0.0160416
0.0485603
-0.0482172
0.0540341
-0.0789606
0.0407795
-0.0955109
0.0342994
-0.0974743
0.0154948
-0.08877
-0.0077349
-0.0693976
-0.0416307
-0.0437891
-0.0468408
-0.0105978
-0.0602813
0.0454057
-0.0964476
0.1262
-0.138548
0.180833
-0.0729955
0.162194
0.00496045
0.154009
-0.00828465
0.227276
-0.0915172
0.342897
-0.188237
0.44312
-0.119214
0.397443
0.0467023
0.221088
0.212447
-0.0168946
0.379581
-0.25217
0.401478
-0.461164
0.317617
-0.584844
0.204306
-0.536232
-0.0525583
-0.370331
-0.24696
-0.194554
-0.269695
-0.0663357
-0.183105
0.0087573
-0.117744
0.0293869
-0.0417897
0.0205453
0.00554181
0.024022
0.0106841
0.0691006
-0.076761
0.133225
-0.102434
0.152592
-0.0413183
0.099559
0.059811
0.0196314
0.128487
-0.0418772
0.0702297
-0.0570013
0.0414032
-0.0529237
-0.00279631
-0.0394671
-0.0172876
-0.0177599
-0.0301669
0.00490094
-0.0298964
0.0199039
-0.0268395
0.0231146
-0.00584025
0.0114237
0.0164959
-0.00924211
0.0532064
-0.0353239
0.037423
-0.0558975
0.033832
-0.0712842
0.0236123
-0.0784144
0.0121857
-0.077749
0.00047154
-0.0714627
-0.00866213
-0.0624258
-0.0127721
-0.0529107
-0.0134187
-0.0461166
-0.00873697
-0.0394349
-0.0107543
-0.0372788
-0.00300366
-0.0349971
-0.00330455
-0.0355267
0.0034323
-0.0357172
0.00034597
-0.0386114
0.00427883
-0.0411477
0.00361397
-0.0444355
0.00549063
-0.046297
0.00176553
-0.0522825
0.00893361
-0.0604906
0.016107
-0.0607351
-0.00186868
-0.0770339
0.02512
0.0347765
-0.0437367
-0.023
0.036979
-0.0436641
-0.0232867
-0.0405623
-0.0228715
-0.035288
-0.021219
-0.0302552
-0.0189347
-0.0248856
-0.0159315
-0.0202559
-0.0125019
-0.0171653
-0.00962948
-0.0152198
-0.0077654
-0.013497
-0.00658709
-0.0115351
-0.00558699
-0.009709
-0.00431246
-0.0087277
-0.00263811
-0.00869166
-0.000831602
-0.0084899
0.000702638
-0.00683357
0.00162711
-0.00366672
0.00181389
-0.000835693
0.00153355
0.000382954
0.000490737
0.000246971
-0.000857674
-0.000274756
-0.000848066
0.000378548
0.000629442
0.00406493
-0.00166532
0.00798591
-0.00899555
0.00496776
-0.0124461
-0.00368898
-0.00906857
-0.000920621
-0.00221501
-0.00164507
0.00614975
-0.00959046
-0.0126875
0.0254987
-0.0234331
-0.0225871
-0.0305325
0.00810867
-0.00689432
0.00298177
-0.00387111
-0.00357092
-0.005952
0.00894275
0.0839331
0.0199902
-0.00963183
0.0185537
-0.00385356
0.0137906
0.0269442
0.0166629
0.0144817
0.0300986
-0.0186405
0.0310582
-0.0214131
0.0268385
-0.105372
0.0396061
0.0191664
0.0210292
-0.0959048
0.045317
0.0273399
0.0459751
-0.0663835
0.048427
-0.0360713
0.0498033
0.00640442
0.0443633
0.027401
0.0340142
0.00797871
0.00635388
0.0707943
-0.0300518
0.0881758
-0.0738762
0.0932148
-0.113962
0.0732556
-0.134774
0.0518562
-0.134551
0.0138368
-0.114036
-0.0336383
-0.0837371
-0.085379
-0.0433297
-0.0925005
0.00265449
-0.100551
0.0731761
-0.150988
0.182266
-0.246367
0.260855
-0.147684
0.238383
0.0246456
0.231691
-0.00970352
0.343488
-0.18909
0.521347
-0.3607
0.637705
-0.229281
0.543452
0.137025
0.271156
0.454403
-0.0734705
0.714484
-0.39522
0.730187
-0.668362
0.601305
-0.822153
0.355594
-0.749736
-0.114317
-0.523411
-0.457966
-0.288226
-0.49417
-0.100784
-0.356944
0.00720503
-0.223021
0.0404483
-0.085032
0.0328527
-0.000314807
0.042842
0.00920235
0.109857
-0.142326
0.196916
-0.188192
0.215909
-0.0634797
0.135026
0.130238
0.0203501
0.243527
-0.0629456
0.157791
-0.083999
0.0766496
-0.0774906
-0.00485862
-0.0543327
-0.0394113
-0.0257533
-0.0588522
0.0048477
-0.0626693
0.0235918
-0.0489549
0.0242432
-0.00886193
0.00508338
0.0310368
-0.0245362
0.0792393
-0.0598065
0.0680313
-0.0905219
0.0648137
-0.110397
0.0452932
-0.118965
0.0225465
-0.11673
0.000124872
-0.107262
-0.0157355
-0.0944897
-0.0232799
-0.0814282
-0.0254082
-0.0721955
-0.0175231
-0.0637035
-0.0192222
-0.0610236
-0.00634051
-0.0584726
-0.0066848
-0.0599522
0.00458116
-0.0609486
0.000994107
-0.065485
0.00766274
-0.0693874
0.00676588
-0.0751203
0.012498
-0.0783047
0.00546559
-0.0875107
0.0171447
-0.099259
0.0283934
-0.10024
0.000197885
-0.123673
0.0485036
0.0583507
-0.044582
-0.020276
0.039188
-0.0453038
-0.0206057
-0.0447584
-0.0215754
-0.0429272
-0.0218659
-0.040655
-0.0211371
-0.0365926
-0.0193031
-0.0321705
-0.0168631
-0.0285168
-0.0143323
-0.0255177
-0.0121134
-0.0225372
-0.0102173
-0.0193028
-0.00842253
-0.0163706
-0.00660883
-0.0145785
-0.00480498
-0.0139829
-0.00306474
-0.0132914
-0.00135435
-0.0110661
6.93183e-05
-0.00726812
0.000882404
-0.00399979
0.000723513
-0.00251204
-0.000582036
-0.00229814
-0.00246596
-0.00247283
-0.00259424
-0.00187444
-0.00022762
0.00178704
-0.000677885
0.00652118
-0.00749785
0.00361613
-0.0140168
-0.00513407
-0.0168851
-0.00165751
-0.0043865
-0.00492991
0.00722903
-0.0104145
-0.015831
0.028298
-0.00136444
-0.0308813
-0.077546
0.0169176
0.0185394
-0.0116839
-0.0362631
0.00247106
0.0399414
0.0202757
0.0809289
0.0232738
0.00770748
0.0224311
0.0156007
0.0171113
0.0232664
0.0214167
0.0109324
0.0376242
-0.0155433
0.0367862
-0.038106
0.0388234
-0.124945
0.0453247
-0.00335845
0.0316647
-0.151333
0.0604272
0.00756744
0.0594312
-0.0827104
0.0618396
-0.0368447
0.0614013
0.0129723
0.0520684
0.0436226
0.0381986
0.0473102
3.52057e-05
0.0949223
-0.0462222
0.141972
-0.100806
0.144364
-0.149003
0.114799
-0.172551
0.0722372
-0.168196
0.00863715
-0.137004
-0.0716898
-0.0902244
-0.147011
-0.0343026
-0.157291
0.0237608
-0.155182
0.104566
-0.216597
0.238368
-0.379679
0.342693
-0.248382
0.320216
0.048398
0.320455
-0.0139088
0.478151
-0.330042
0.715632
-0.593008
0.837456
-0.341154
0.670218
0.304974
0.285265
0.812689
-0.15957
1.14988
-0.557481
1.15039
-0.87735
0.932942
-1.05016
0.521082
-0.955827
-0.205915
-0.676212
-0.728841
-0.378452
-0.784307
-0.138662
-0.585026
0.00370324
-0.362581
0.051968
-0.14147
0.0488135
-0.00603294
0.0678846
-0.0259973
0.157781
-0.228968
0.264784
-0.294369
0.278457
-0.0798052
0.166165
0.233636
0.0160609
0.393647
-0.0873732
0.250967
-0.113525
0.110919
-0.104125
-0.0104679
-0.0740205
-0.0689438
-0.0354378
-0.0972988
0.00212243
-0.100018
0.0230601
-0.0707147
0.0201503
-0.00627534
-0.00702165
0.0564854
-0.0481648
0.109595
-0.093923
0.11197
-0.132443
0.102801
-0.156356
0.0699274
-0.16569
0.032512
-0.161392
-0.00346247
-0.148421
-0.0272439
-0.131871
-0.0380357
-0.115254
-0.0410239
-0.103914
-0.0282324
-0.093682
-0.029089
-0.0910267
-0.00895896
-0.0886729
-0.00929522
-0.0913608
0.00763082
-0.093769
0.00354652
-0.100162
0.0130905
-0.105968
0.0115421
-0.114463
0.0219748
-0.119332
0.0107592
-0.132167
0.028618
-0.147981
0.0443728
-0.149646
0.00253875
-0.179771
0.0785884
0.0867858
-0.0461285
-0.0186621
0.0415014
-0.0463264
-0.0187435
-0.0461165
-0.0196345
-0.0460521
-0.020501
-0.0465286
-0.0208432
-0.0452361
-0.020294
-0.042898
-0.019279
-0.0403237
-0.0179143
-0.0373986
-0.0161801
-0.0337842
-0.0141245
-0.0295944
-0.011833
-0.0256761
-0.0095559
-0.0230154
-0.00756158
-0.0216611
-0.00586563
-0.0202741
-0.00418083
-0.0173244
-0.00262774
-0.0128428
-0.00150965
-0.00907012
-0.00142434
-0.00723374
-0.00256299
-0.00651013
-0.00457012
-0.00621272
-0.00512448
-0.00574784
-0.00275592
-0.00227369
-0.00157728
0.00293692
-0.00596329
0.000410048
-0.0128388
-0.00724582
-0.0189795
-0.00326349
-0.00304282
-0.00956274
0.00814406
-0.0109413
-0.0154168
0.0231975
0.0220363
-0.0292823
-0.104784
0.0155375
0.0321129
-0.0128196
-0.0645864
0.00604735
0.0437181
0.0275912
0.0621664
0.0227785
5.69247e-05
0.0249502
0.0225695
0.0204396
0.0187527
0.0259277
0.000322681
0.0435684
-0.0133307
0.040925
-0.0557284
0.0509443
-0.12824
0.0459265
-0.0422231
0.049044
-0.142687
0.0708878
-0.0458596
0.0717857
-0.0869461
0.0736294
-0.0332404
0.0708647
0.0213307
0.0574533
0.0596262
0.039343
0.0943247
-0.0076329
0.135585
-0.0635087
0.203306
-0.127705
0.205085
-0.182713
0.164025
-0.207641
0.0945198
-0.197668
-0.00101421
-0.153986
-0.12179
-0.0891565
-0.226835
-0.0177249
-0.238624
0.0517394
-0.22105
0.138428
-0.286793
0.291901
-0.534483
0.42438
-0.382586
0.408143
0.0679994
0.422859
-0.0313649
0.633854
-0.523438
0.927347
-0.883094
1.03568
-0.441507
0.767049
0.57455
0.25782
1.30193
-0.288421
1.69585
-0.733138
1.61332
-1.07971
1.28082
-1.26349
0.69707
-1.15366
-0.313831
-0.83007
-1.04508
-0.474312
-1.13245
-0.181467
-0.867284
-0.00259935
-0.538646
0.0638115
-0.216139
0.0685573
-0.0166132
0.0996864
-0.0613111
0.21219
-0.337854
0.335457
-0.41774
0.338982
-0.0863442
0.192577
0.37166
0.00749952
0.577827
-0.115915
0.363538
-0.145833
0.1463
-0.127728
-0.0243821
-0.0945385
-0.101581
-0.047688
-0.143812
-0.00467302
-0.1423
0.0166014
-0.0927072
0.00845107
0.00158299
-0.027552
0.0932439
-0.0803632
0.149664
-0.13632
0.166465
-0.182098
0.147757
-0.209478
0.0978952
-0.219085
0.0425984
-0.212449
-0.00953195
-0.195869
-0.042407
-0.175566
-0.0565244
-0.155596
-0.0599907
-0.142312
-0.0408858
-0.130714
-0.0403136
-0.128268
-0.0113877
-0.126297
-0.0115598
-0.130653
0.0123385
-0.134697
0.00770332
-0.143476
0.0207931
-0.151482
0.0183998
-0.163232
0.0347695
-0.170018
0.0179628
-0.186889
0.0440233
-0.206717
0.0643564
-0.209538
0.00609436
-0.245469
0.114591
0.118597
-0.0484097
-0.01788
0.0436921
-0.0480714
-0.0177722
-0.0470835
-0.0181414
-0.0470261
-0.0187267
-0.0487655
-0.0193474
-0.0498132
-0.01959
-0.0500942
-0.0196921
-0.0497264
-0.0195484
-0.0482313
-0.0187797
-0.0452577
-0.0172501
-0.0411625
-0.0151433
-0.037018
-0.0129038
-0.0339213
-0.010957
-0.0319446
-0.009346
-0.0298422
-0.00770874
-0.0260791
-0.00607658
-0.0208379
-0.0047487
-0.0164754
-0.00430115
-0.0142357
-0.0049712
-0.0129237
-0.00673162
-0.0120217
-0.00776113
-0.0116142
-0.00604201
-0.00844307
-0.00384085
-0.0029447
-0.00506352
-0.00539208
-0.0103222
-0.0104779
-0.0168643
-0.00544766
-0.000213883
-0.0160846
0.00970363
-0.0111088
-0.0103353
0.011819
0.0367442
-0.0237647
-0.101241
0.00831877
0.033955
-0.00906655
-0.063044
0.00765433
0.0404266
0.0279269
0.0575892
0.027028
-7.45406e-05
0.0244565
0.00880945
0.0208558
0.00431143
0.0308031
-0.0141358
0.0484884
-0.0126384
0.0448337
-0.0717229
0.06022
-0.115784
0.0476819
-0.106324
0.0639015
-0.122002
0.07965
-0.086693
0.0824428
-0.0823796
0.0832642
-0.0253216
0.0778329
0.0318385
0.0607615
0.0756534
0.0383073
0.142389
-0.0156883
0.186197
-0.0805735
0.269519
-0.152983
0.273512
-0.213606
0.219478
-0.238909
0.117528
-0.222497
-0.0164421
-0.165331
-0.184242
-0.0815916
-0.325596
0.00534009
-0.336091
0.0857128
-0.297243
0.173957
-0.356743
0.341539
-0.70491
0.504273
-0.544257
0.502654
0.0762809
0.541647
-0.0716163
0.812899
-0.778515
1.15456
-1.22195
1.22239
-0.502659
0.822052
0.976643
0.182756
1.92874
-0.423232
2.29715
-0.911351
1.9947
-1.26377
1.63828
-1.45908
0.885591
-1.34464
-0.42774
-0.987652
-1.3961
-0.578259
-1.53424
-0.231306
-1.20415
-0.0129
-0.754309
0.0756946
-0.313343
0.0926053
-0.0382607
0.13818
-0.107629
0.272068
-0.468376
0.407296
-0.553797
0.396304
-0.0784329
0.215015
0.545449
-0.00462445
0.794679
-0.144385
0.473508
-0.181776
0.184811
-0.159788
-0.0418085
-0.11771
-0.143378
-0.0638179
-0.197314
-0.0167069
-0.188284
0.00323066
-0.112765
-0.0114964
0.0167609
-0.0583429
0.139864
-0.121828
0.210294
-0.187607
0.231055
-0.240272
0.199449
-0.270783
0.128797
-0.280405
0.0524908
-0.271317
-0.0183114
-0.251077
-0.0613763
-0.227079
-0.0787336
-0.203789
-0.0822625
-0.188761
-0.0552216
-0.17584
-0.0527684
-0.173906
-0.0131701
-0.172607
-0.0130491
-0.178762
0.0189969
-0.184813
0.0139699
-0.196112
0.0309843
-0.206657
0.0276597
-0.221818
0.0509889
-0.23075
0.0273148
-0.251709
0.0633646
-0.27557
0.0882957
-0.279847
0.0110478
-0.320267
0.155245
0.151753
-0.0510226
-0.0175883
0.0456789
-0.0504711
-0.0173247
-0.0486716
-0.0172552
-0.0478897
-0.0174422
-0.0495877
-0.0179017
-0.051703
-0.0183513
-0.0537864
-0.0189378
-0.0554072
-0.0194883
-0.055748
-0.0194868
-0.0543388
-0.0186542
-0.0515688
-0.0171774
-0.0484713
-0.0155277
-0.0459976
-0.0140956
-0.0441174
-0.0128413
-0.0417239
-0.0113742
-0.0373675
-0.0096847
-0.0314494
-0.00817612
-0.0265053
-0.00733585
-0.0238839
-0.00740515
-0.02202
-0.0086648
-0.0204501
-0.0100423
-0.0199396
-0.00927615
-0.0169916
-0.00669924
-0.0114717
-0.00499499
-0.0138432
-0.00796676
-0.0157163
-0.0125554
-0.0118084
0.00358602
-0.0247108
0.00879908
-0.011929
-0.00187962
-0.00437191
0.0381266
-0.0179504
-0.0743158
-0.00227901
0.0259018
-0.0053399
-0.0410036
0.00710389
0.0332343
0.0243671
0.051633
0.0278255
-0.000800795
0.0251888
-0.00991429
0.021168
-0.0166206
0.033868
-0.0276885
0.0486414
-0.0184067
0.0471917
-0.081665
0.0655354
-0.0889476
0.053168
-0.140632
0.0734885
-0.105656
0.0869691
-0.100069
0.0907973
-0.072657
0.0903378
-0.0145184
0.0821607
0.0439478
0.0624483
0.0926871
0.0360053
0.187984
-0.0231792
0.24338
-0.0957942
0.338785
-0.175005
0.347997
-0.240374
0.280205
-0.265631
0.140996
-0.242793
-0.038057
-0.172184
-0.258708
-0.0715073
-0.440828
0.0340542
-0.452753
0.124779
-0.382287
0.211564
-0.422964
0.382894
-0.878944
0.57759
-0.74308
0.604269
0.0578534
0.680309
-0.147053
1.01759
-1.10311
1.392
-1.59358
1.38567
-0.491053
0.82443
1.54014
0.0705728
2.67626
-0.588697
2.93101
-1.04901
2.49899
-1.42746
2.0317
-1.63737
1.08973
-1.5325
-0.531976
-1.15374
-1.7691
-0.69467
-1.9847
-0.291319
-1.59752
-0.0288762
-1.01399
0.0870614
-0.438312
0.121081
-0.0770346
0.183178
-0.169869
0.336287
-0.618304
0.478817
-0.697759
0.449603
-0.0525726
0.228163
0.76034
-0.020051
1.03743
-0.175762
0.657678
-0.212656
0.221217
-0.193145
-0.0560256
-0.144521
-0.191654
-0.0849768
-0.256469
-0.0357577
-0.236202
-0.0184802
-0.127741
-0.0406271
0.0402436
-0.0973831
0.196634
-0.172708
0.283762
-0.248142
0.305129
-0.307561
0.257691
-0.341259
0.162796
-0.350979
0.0624112
-0.339581
-0.0294933
-0.31575
-0.0839234
-0.288084
-0.104533
-0.261469
-0.107806
-0.244669
-0.0712793
-0.230429
-0.0664868
-0.228981
-0.0144395
-0.228293
-0.0139239
-0.236364
0.0276031
-0.24443
0.0222608
-0.258371
0.0437245
-0.271486
0.0393629
-0.290077
0.0707031
-0.301156
0.0388283
-0.325977
0.0864494
-0.353253
0.115619
-0.359445
0.0179479
-0.402645
0.198882
0.183868
-0.0535802
-0.017319
0.0475535
-0.0529704
-0.0169592
-0.0507804
-0.016652
-0.049422
-0.0166741
-0.0506491
-0.0169935
-0.0528868
-0.0173753
-0.0556304
-0.0179398
-0.0582068
-0.0185694
-0.0596996
-0.0188052
-0.0596919
-0.0183486
-0.05866
-0.017396
-0.0575128
-0.0164181
-0.0568114
-0.0157096
-0.056165
-0.0150621
-0.0544467
-0.0140047
-0.0502643
-0.0124623
-0.0441806
-0.0109727
-0.0389707
-0.00996399
-0.0362108
-0.00958279
-0.0340379
-0.0102932
-0.0318904
-0.0118435
-0.0311364
-0.0120793
-0.0282453
-0.00966109
-0.0230409
-0.00591335
-0.0254167
-0.00690842
-0.0237278
-0.0083975
-0.0205381
0.00539087
-0.035378
0.0054254
-0.0151388
0.00719308
-0.0230885
0.0274914
-0.0154847
-0.0381825
-0.0143724
0.0117543
-0.00478292
-0.0162436
0.00421784
0.0203754
0.0179115
0.0349075
0.0251675
-0.0127562
0.0225475
-0.0352203
0.0189776
-0.0433253
0.0361264
-0.0391481
0.0477056
-0.024636
0.0485618
-0.0859787
0.065212
-0.069551
0.0579283
-0.157494
0.0775159
-0.0884301
0.0921723
-0.0900693
0.0963532
-0.0596415
0.0945793
-0.00311119
0.0839186
0.0560954
0.0631385
0.111404
0.0336641
0.228517
-0.0286395
0.304533
-0.10744
0.40992
-0.192231
0.427154
-0.262042
0.34579
-0.287659
0.165605
-0.259427
-0.0652161
-0.176313
-0.344065
-0.0586946
-0.571915
0.0622983
-0.585316
0.168469
-0.480994
0.252636
-0.483887
0.422966
-1.0511
0.645156
-0.995666
0.714906
-0.00188802
0.841135
-0.269422
1.33804
-1.58654
1.63074
-1.88708
1.51289
-0.368873
0.769896
2.28436
-0.0721948
3.51821
-0.705392
3.54918
-1.19803
2.93765
-1.56657
2.39711
-1.79866
1.31774
-1.72043
-0.608897
-1.33389
-2.14957
-0.829613
-2.47866
-0.365964
-2.05093
-0.0530161
-1.32411
0.0968106
-0.597457
0.153543
-0.138677
0.233934
-0.250297
0.403566
-0.784841
0.548654
-0.8446
0.49843
-0.00601161
0.242115
1.01095
-0.0437587
1.313
-0.20444
0.831034
-0.253873
0.269667
-0.22982
-0.0743498
-0.176071
-0.244899
-0.112388
-0.319733
-0.0619334
-0.285109
-0.0488942
-0.140289
-0.0782667
0.0731529
-0.146409
0.261757
-0.232788
0.368543
-0.318181
0.388997
-0.384781
0.322941
-0.422289
0.200485
-0.432653
0.0729051
-0.419362
-0.0426715
-0.392071
-0.109914
-0.36069
-0.133956
-0.330492
-0.136856
-0.311668
-0.0892835
-0.295727
-0.0818188
-0.294518
-0.0154048
-0.2942
-0.0143914
-0.303885
0.0378904
-0.313818
0.0324579
-0.330059
0.0586912
-0.345545
0.0533125
-0.367069
0.0934208
-0.38007
0.0522983
-0.407981
0.112503
-0.437734
0.145385
-0.445865
0.0268101
-0.489739
0.243449
0.212545
-0.0559802
-0.0166798
0.0495549
-0.0552998
-0.0163365
-0.0530963
-0.0160047
-0.0515404
-0.0160747
-0.0524442
-0.0164287
-0.0545263
-0.0167636
-0.0572409
-0.0171219
-0.0598463
-0.0174726
-0.0615098
-0.0175193
-0.0620393
-0.0170369
-0.0621603
-0.0162315
-0.0628102
-0.0155731
-0.0642014
-0.0153104
-0.0655189
-0.0151321
-0.0654643
-0.0145102
-0.0625867
-0.0133133
-0.0573642
-0.0121672
-0.0526995
-0.0114639
-0.0504597
-0.0111086
-0.0485928
-0.0115097
-0.0462677
-0.0131559
-0.0452992
-0.0143595
-0.0423781
-0.0125468
-0.0379635
-0.00800072
-0.0403988
-0.00791217
-0.0354513
-0.00632054
-0.033584
0.00409649
-0.0482501
-0.000615354
-0.0235287
0.01348
-0.0421109
0.00990246
-0.0199418
-0.00778119
-0.0270676
-0.00440806
-0.00979656
-0.00256887
-0.00215773
0.00125911
0.00775896
0.00609686
0.0182964
-0.0351848
0.0170017
-0.0633468
0.014531
-0.0698699
0.0337652
-0.0476544
0.0421818
-0.0327071
0.048685
-0.0819173
0.0610057
-0.053737
0.0598311
-0.143837
0.0778397
-0.0746705
0.0940836
-0.0653961
0.0986457
-0.044413
0.0958569
0.00633269
0.0834188
0.0658732
0.0635044
0.131218
0.0327098
0.262753
-0.0306745
0.366434
-0.113911
0.481763
-0.203432
0.51012
-0.278138
0.41657
-0.305561
0.193163
-0.274027
-0.0961321
-0.180291
-0.438482
-0.0462324
-0.717347
0.0910195
-0.73491
0.218342
-0.599172
0.301457
-0.540194
0.452661
-1.20193
0.717548
-1.26849
0.834967
-0.111379
1.02691
-0.453558
1.47832
-2.02942
1.86134
-2.26919
1.58706
-0.0905599
0.660624
3.2093
-0.228803
4.40643
-0.845542
4.14478
-1.29111
3.39823
-1.67577
2.76992
-1.94258
1.58233
-1.90807
-0.640931
-1.53221
-2.51869
-0.99023
-3.00821
-0.461382
-2.569
-0.0890619
-1.69343
0.102991
-0.798895
0.188903
-0.229793
0.289463
-0.35078
0.472623
-0.96487
0.61573
-0.989567
0.542707
0.0629209
0.251827
1.29694
-0.0602182
1.61254
-0.24586
1.01854
-0.297169
0.319719
-0.270687
-0.0944514
-0.213266
-0.301623
-0.146754
-0.385819
-0.0966995
-0.333274
-0.0873101
-0.151268
-0.124807
0.108703
-0.203415
0.340605
-0.301582
0.464869
-0.397657
0.48327
-0.47259
0.396345
-0.515306
0.243278
-0.527451
0.0851541
-0.513068
-0.0570034
-0.482556
-0.139064
-0.447288
-0.167138
-0.412985
-0.169915
-0.391463
-0.109902
-0.37307
-0.0995132
-0.371335
-0.0168524
-0.37065
-0.0152101
-0.381282
0.0491595
-0.392426
0.0438795
-0.410293
0.0751864
-0.427483
0.0688355
-0.450971
0.118183
-0.465287
0.0671271
-0.494975
0.140213
-0.525658
0.176047
-0.535348
0.0372823
-0.577418
0.286507
0.235743
-0.0583669
-0.0156406
0.0518828
-0.0575631
-0.0154089
-0.0555108
-0.0151943
-0.0539823
-0.0153799
-0.0547803
-0.015842
-0.0567867
-0.0162061
-0.0593122
-0.0163971
-0.0615537
-0.0164236
-0.0627979
-0.0161519
-0.063102
-0.0154589
-0.0634845
-0.014535
-0.0650543
-0.0138115
-0.0678612
-0.0135253
-0.0708419
-0.0133773
-0.0726185
-0.0128709
-0.0717372
-0.0119037
-0.0683798
-0.0111862
-0.0653119
-0.011139
-0.0646221
-0.0113461
-0.0641381
-0.0118742
-0.062526
-0.013706
-0.0617453
-0.0158857
-0.0590186
-0.0151083
-0.0561154
-0.0111084
-0.0587524
-0.0109755
-0.0515517
-0.00732407
-0.0517232
-0.000490555
-0.0634672
-0.00848841
-0.0390441
0.0136892
-0.0604198
-0.0083362
-0.0333422
0.00696919
-0.041109
-0.0196601
-0.0220071
-0.00549729
-0.0145083
-0.0214313
-0.00700421
-0.0313189
0.00624438
-0.0623334
0.00720732
-0.0889049
0.00748275
-0.0925162
0.0278267
-0.0543091
0.032243
-0.04121
0.0441881
-0.0698727
0.0503974
-0.0463406
0.0587903
-0.112004
0.0741788
-0.0628993
0.0915503
-0.0375747
0.097131
-0.02875
0.0940818
0.0115521
0.0811088
0.0706664
0.0641177
0.149935
0.0346242
0.291519
-0.0279883
0.427409
-0.11398
0.553472
-0.207881
0.596722
-0.288797
0.493769
-0.320658
0.226659
-0.288832
-0.127947
-0.18728
-0.539576
-0.0370663
-0.875612
0.118801
-0.904102
0.266553
-0.736026
0.363956
-0.607594
0.497732
-1.33261
0.765353
-1.56671
0.967119
-0.30698
1.23737
-0.710783
1.74803
-2.53289
2.07041
-2.59203
1.60164
0.382256
0.508928
4.29656
-0.374416
5.28176
-0.932263
4.67147
-1.37464
3.86861
-1.75927
3.1459
-2.06401
1.88615
-2.08892
-0.612086
-1.74787
-2.85216
-1.18317
-3.55817
-0.585571
-3.15514
-0.142517
-2.13312
0.10227
-1.05283
0.224918
-0.358496
0.348162
-0.473563
0.542176
-1.15562
0.679302
-1.12846
0.582856
0.154744
0.258845
1.61671
-0.0828136
1.94004
-0.286831
1.22724
-0.343563
0.375387
-0.316373
-0.114645
-0.256747
-0.360263
-0.188452
-0.453666
-0.138493
-0.380657
-0.133094
-0.156948
-0.178099
0.153205
-0.26764
0.430766
-0.377624
0.572678
-0.48597
0.5895
-0.571345
0.480034
-0.621635
0.293527
-0.637478
0.101091
-0.623328
-0.0711619
-0.590003
-0.170954
-0.550571
-0.204343
-0.511277
-0.207856
-0.485884
-0.134295
-0.463698
-0.120895
-0.460082
-0.0201303
-0.457762
-0.0176392
-0.46806
0.06013
-0.479288
0.0554007
-0.497515
0.0919427
-0.515299
0.0848166
-0.539139
0.143386
-0.553805
0.0823669
-0.583346
0.167653
-0.613147
0.20579
-0.623395
0.0483765
-0.660913
0.325345
0.252088
-0.0609212
-0.014485
0.0545301
-0.0599543
-0.014382
-0.0580478
-0.0142739
-0.0565961
-0.0145153
-0.0573719
-0.0150317
-0.0593902
-0.0154337
-0.0617906
-0.0155464
-0.0636776
-0.0153699
-0.0644186
-0.0148775
-0.0642345
-0.0140312
-0.0643347
-0.0129779
-0.0659953
-0.0120538
-0.0692221
-0.0114612
-0.0728824
-0.0109761
-0.0757219
-0.0101972
-0.0765246
-0.00910927
-0.0752047
-0.0085206
-0.0742075
-0.00898965
-0.0758015
-0.00987742
-0.0778223
-0.0107642
-0.0781818
-0.0128269
-0.0784457
-0.0159401
-0.0766383
-0.0165586
-0.0763011
-0.0143002
-0.0795903
-0.0149724
-0.0717951
-0.0108228
-0.0749613
-0.00746167
-0.0813824
-0.0162928
-0.0624799
0.00673233
-0.0789421
-0.0225602
-0.0560082
0.00437936
-0.0585653
-0.0327123
-0.0419783
-0.0223913
-0.0319283
-0.0460612
-0.026915
-0.0676731
-0.0117103
-0.0876217
-0.00794326
-0.107464
-0.00345776
-0.107409
0.0162161
-0.0593376
0.0178024
-0.0510733
0.0346985
-0.0560369
0.0350622
-0.0474106
0.0515522
-0.0745529
0.0662511
-0.052928
0.0835696
-0.0171318
0.0910345
-0.0161276
0.0890109
0.010888
0.077341
0.0684816
0.0652575
0.164223
0.0395644
0.314727
-0.0201589
0.483986
-0.107087
0.622743
-0.205451
0.686938
-0.294725
0.579471
-0.334919
0.270218
-0.30635
-0.157049
-0.200697
-0.644475
-0.0338389
-1.04652
0.144591
-1.09673
0.321831
-0.901273
0.451886
-0.707238
0.536103
-1.41043
0.824439
-1.87472
1.11136
-0.590146
1.47106
-1.05205
2.01844
-3.07451
2.247
-2.82222
1.55177
1.08159
0.331905
5.50598
-0.495001
6.09429
-0.995953
5.13483
-1.41527
4.29542
-1.81508
3.53384
-2.15631
2.22794
-2.25021
-0.512838
-1.97143
-3.12249
-1.41189
-4.10025
-0.747685
-3.80742
-0.22116
-2.6558
0.089526
-1.37199
0.258032
-0.532836
0.407627