/*--------------------------------*- C++ -*----------------------------------*\
| =========                 |                                                 |
| \\      /  F ield         | OpenFOAM: The Open Source CFD Toolbox           |
|  \\    /   O peration     | Version:  2412                                  |
|   \\  /    A nd           | Website:  www.openfoam.com                      |
|    \\/     M anipulation  |                                                 |
\*---------------------------------------------------------------------------*/
FoamFile
{
    version     2.0;
    format      ascii;
    arch        "LSB;label=32;scalar=64";
    class       volVectorField;
    location    "0.005";
    object      ddt0(U);
}
// * * * * * * * * * * * * * * * * * * * * * * * * * * * * * * * * * * * * * //

dimensions      [0 1 -2 0 0 0 0];

internalField   nonuniform List<vector> 
12600
(
(261.897 -6.63517e-20 -0.686081)
(230.783 1.05861e-19 -18.4734)
(184.831 1.98547e-19 -20.1449)
(154.493 0 -20.1592)
(133.67 5.19661e-19 -19.5123)
(117.752 3.69874e-19 -18.5067)
(106.544 0 -17.0497)
(97.9147 0 -15.6948)
(90.0236 -3.07356e-18 -14.8787)
(82.525 0 -14.387)
(76.3164 1.3924e-18 -13.7416)
(71.7415 1.01453e-18 -12.832)
(68.0415 -1.05e-18 -11.9648)
(64.3369 0 -11.3787)
(60.5785 -1.39056e-18 -10.9693)
(57.2383 0 -10.502)
(54.4588 4.55801e-18 -9.92794)
(51.8799 0 -9.37629)
(49.1712 -2.53688e-18 -8.93762)
(46.4176 -2.46605e-18 -8.5485)
(43.8622 2.21013e-18 -8.10554)
(41.5241 4.35259e-21 -7.60967)
(39.2104 0 -7.14517)
(36.8598 -4.40608e-18 -6.75497)
(34.5966 0 -6.38595)
(32.5806 0 -6.00318)
(30.7925 -4.58867e-18 -5.63114)
(28.9274 0 -5.29145)
(27.0139 -5.43814e-21 -5.03277)
(25.3995 4.40606e-18 -4.81732)
(23.974 3.77549e-18 -4.51681)
(22.7964 3.15831e-18 -4.20991)
(21.7444 -3.67255e-18 -3.93168)
(20.0209 -9.18202e-18 -3.62599)
(18.6556 -7.65852e-18 -3.49864)
(17.3966 7.73782e-18 -3.26841)
(16.0645 0 -3.00394)
(15.4334 -5.1944e-18 -2.79719)
(14.235 0 -2.49925)
(12.493 7.28291e-18 -2.26451)
(11.2265 0 -2.06943)
(9.7221 -1.31011e-20 -1.82739)
(8.65854 0 -1.577)
(7.71769 4.56053e-20 -1.27318)
(6.23638 1.11696e-17 -1.03704)
(5.35879 -1.81355e-17 -0.820687)
(3.16264 1.43477e-17 -0.555757)
(2.52104 0 -0.409825)
(0.798175 0 -0.0570582)
(0.0391828 8.5341e-18 0.133528)
(-1.33091 2.63547e-17 0.494238)
(-3.3487 2.3451e-17 0.788537)
(-4.94041 8.94924e-21 1.02157)
(-6.2556 1.88029e-17 1.30404)
(-7.51362 0 1.57701)
(-9.07017 -1.20237e-17 1.87744)
(-10.2926 -2.16672e-17 2.17496)
(-12.0446 -1.44761e-17 2.50013)
(-13.7729 0 2.84254)
(-15.7394 0 3.17823)
(-17.5364 0 3.54208)
(-19.4226 3.3673e-17 3.90667)
(-21.1711 0 4.28286)
(-23.1634 0 4.69962)
(-25.152 -4.62094e-17 5.08251)
(-27.4397 0 5.55437)
(-29.7499 0 5.96413)
(-32.1401 0 6.48153)
(-34.7808 4.85372e-17 6.99412)
(-37.0142 -5.76258e-17 7.52331)
(-39.7126 -4.83492e-17 8.1106)
(-42.2118 1.97888e-21 8.58093)
(-44.7666 5.57763e-17 9.01308)
(-47.6229 0 9.50995)
(-50.2221 -5.11541e-17 9.97791)
(-53.1882 0 10.5292)
(-56.1557 0 11.0894)
(-59.1773 0 11.6764)
(-62.33 -4.73044e-20 12.2799)
(-65.6909 -1.18427e-16 12.9446)
(-69.0866 -8.29688e-17 13.5721)
(-72.6337 1.19549e-16 14.2743)
(-76.5939 1.04401e-16 14.9945)
(-80.3578 0 15.7258)
(-84.6707 0 16.5346)
(-88.7931 -1.4166e-16 17.3256)
(-93.2568 2.96587e-16 18.1852)
(-97.8842 -1.84627e-16 19.0798)
(-102.564 -1.14912e-16 19.9947)
(-107.647 0 20.9715)
(-112.708 2.12543e-16 21.9646)
(-118.262 -1.17661e-16 23.027)
(-123.955 1.1795e-16 24.1311)
(-129.881 -2.97097e-16 25.2635)
(-136.199 0 26.4834)
(-142.685 0 27.7435)
(-149.359 0 29.0377)
(-156.405 0 30.412)
(-163.75 0 31.8326)
(-171.535 0 33.3477)
(-179.803 1.96516e-16 34.9459)
(-188.347 4.2834e-16 36.611)
(-197.441 3.51568e-16 38.3699)
(-207.064 0 40.2457)
(-217.192 0 42.2085)
(-227.868 0 44.285)
(-239.193 3.37291e-16 46.4842)
(-251.073 6.44246e-16 48.7914)
(-263.597 -3.48043e-16 51.2261)
(-276.889 0 53.8077)
(-290.648 7.17262e-16 56.4846)
(-305.857 0 59.4463)
(-320.804 7.3514e-16 62.3427)
(-338.597 -7.36499e-16 65.8452)
(-355.65 7.32451e-16 69.1188)
(-371.588 7.49572e-16 72.3267)
(-397.514 -7.14205e-16 77.4355)
(-405.198 7.47126e-20 78.6801)
(-440.869 -6.8275e-16 86.59)
(-469.088 0 91.1818)
(572.171 6.73309e-20 2.93058)
(487.448 0 -32.102)
(430.411 -2.01983e-19 -37.6261)
(377.844 0 -42.2678)
(338.914 -5.27941e-19 -43.7342)
(307.132 -4.89729e-19 -43.3398)
(282.76 -2.37603e-19 -41.6267)
(262.233 0 -39.9014)
(243.747 5.57221e-20 -38.8804)
(227.193 -1.4441e-18 -38.0476)
(213.381 1.04302e-18 -36.6542)
(202.094 8.74443e-19 -34.7385)
(192.111 -1.08348e-18 -32.9624)
(182.51 1.33495e-18 -31.7128)
(173.379 2.74412e-18 -30.715)
(165.154 0 -29.5259)
(157.743 -6.43845e-20 -28.1071)
(150.591 2.42192e-18 -26.7409)
(143.345 2.57497e-18 -25.5808)
(136.15 0 -24.4835)
(129.241 0 -23.2545)
(122.56 2.09812e-18 -21.9185)
(115.884 0 -20.6563)
(109.225 2.234e-18 -19.5607)
(102.81 -4.34691e-18 -18.5236)
(96.8412 0 -17.4702)
(91.3058 4.6416e-18 -16.4601)
(85.9156 0 -15.5179)
(80.7115 -5.19834e-18 -14.7325)
(76.0699 -8.84504e-18 -14.0569)
(71.8142 -7.6058e-18 -13.1979)
(67.8027 -3.19722e-18 -12.3121)
(63.8803 3.71669e-18 -11.5236)
(59.2318 1.86757e-17 -10.651)
(55.3349 1.54511e-17 -10.1721)
(51.3869 0 -9.4823)
(47.7168 0 -8.70896)
(44.4995 3.80663e-20 -8.06039)
(40.8833 0 -7.24833)
(36.1958 -7.3528e-18 -6.40323)
(32.0093 0 -5.84287)
(28.3404 -1.40505e-17 -5.05437)
(23.9379 0 -4.26001)
(20.8782 -1.45481e-17 -3.4513)
(16.0581 0 -2.65456)
(13.1456 1.82619e-17 -2.03638)
(7.58591 0 -1.14549)
(4.85085 0 -0.66649)
(-0.084485 -1.16264e-17 0.397715)
(-3.36861 0 1.01643)
(-7.99946 0 2.07714)
(-13.1008 0 3.03613)
(-17.9163 -2.8361e-17 3.66459)
(-22.5343 -3.76196e-17 4.65346)
(-26.4906 0 5.47202)
(-31.5595 0 6.42565)
(-35.7018 2.1754e-17 7.31803)
(-41.1249 1.44754e-17 8.35771)
(-46.5249 0 9.40141)
(-52.1644 0 10.4674)
(-58.0519 0 11.592)
(-63.6519 0 12.7137)
(-69.6902 2.06659e-17 13.9001)
(-75.7671 -4.06944e-17 15.152)
(-82.1613 4.58766e-17 16.3799)
(-89.0804 0 17.7692)
(-95.9324 0 19.0255)
(-103.426 0 20.5277)
(-111.212 -4.12584e-20 21.9923)
(-118.464 5.70741e-17 23.4692)
(-126.74 4.78426e-17 25.114)
(-134.588 -1.13241e-16 26.5738)
(-142.423 -2.7268e-20 27.9972)
(-150.989 6.46891e-17 29.5743)
(-159.055 5.04258e-17 31.066)
(-167.938 0 32.7645)
(-177.198 0 34.5118)
(-186.479 0 36.3028)
(-196.263 -6.35487e-17 38.1706)
(-206.65 0 40.1827)
(-216.899 0 42.1134)
(-227.864 -1.17004e-16 44.2419)
(-239.529 -1.02069e-16 46.4346)
(-251.04 0 48.6504)
(-263.878 0 51.0945)
(-276.353 0 53.4806)
(-289.77 -2.88645e-16 56.0654)
(-303.765 8.81371e-20 58.75)
(-317.905 -1.11564e-16 61.4834)
(-333.11 8.43981e-17 64.4015)
(-348.393 -2.05942e-16 67.3549)
(-364.859 -1.1389e-16 70.5148)
(-381.854 -2.28097e-16 73.7843)
(-399.29 0 77.1304)
(-418.239 0 80.7686)
(-437.828 0 84.5357)
(-457.929 0 88.3989)
(-479.017 -2.87968e-16 92.465)
(-500.819 0 96.6535)
(-523.816 0 101.09)
(-548.054 1.8832e-16 105.748)
(-573.112 -2.05147e-16 110.578)
(-599.538 -6.72783e-16 115.663)
(-627.488 3.38702e-16 121.053)
(-656.647 0 126.664)
(-687.297 0 132.57)
(-719.581 0 138.786)
(-753.213 -3.06805e-16 145.261)
(-788.473 3.31229e-16 152.051)
(-825.599 0 159.197)
(-863.796 -1.36277e-15 166.552)
(-905.663 -6.77491e-16 174.618)
(-946.027 -1.39451e-15 182.389)
(-995.03 0 191.833)
(-1038.66 0 200.232)
(-1084.62 7.0921e-16 209.014)
(-1151.48 0 222.056)
(-1164.37 7.0864e-16 224.359)
(-1278.26 6.44665e-16 247.456)
(-1325.59 0 255.897)
(694.843 0 24.9537)
(623.405 0 -6.57287)
(577.294 -3.72728e-19 -25.1785)
(524.38 0 -38.1249)
(483.32 0 -45.3922)
(447.482 2.52319e-19 -48.7778)
(418.249 2.25628e-19 -50.1299)
(392.215 0 -50.9501)
(368.603 2.29173e-19 -51.6804)
(347.656 1.36962e-18 -51.6748)
(329.852 -1.72477e-18 -50.5759)
(314.508 -8.29446e-19 -48.9097)
(300.385 -3.8176e-21 -47.4572)
(286.846 -1.26594e-18 -46.4051)
(274.135 -1.26319e-18 -45.3223)
(262.527 1.01816e-18 -43.8421)
(251.696 -2.12025e-18 -42.0767)
(241.025 -2.29635e-18 -40.3699)
(230.246 0 -38.8155)
(219.545 0 -37.2189)
(209.094 1.97556e-18 -35.413)
(198.765 1.9777e-18 -33.4959)
(188.348 0 -31.6924)
(177.945 0 -30.0965)
(167.858 4.12011e-18 -28.5827)
(158.31 0 -27.0558)
(149.323 -8.75501e-18 -25.6058)
(140.653 4.99148e-18 -24.2604)
(132.367 0 -23.0522)
(124.846 4.15251e-18 -21.9516)
(117.815 3.58418e-18 -20.6403)
(111.005 0 -19.2275)
(104.263 -3.54668e-18 -17.9783)
(96.7458 -8.89155e-18 -16.7003)
(90.3534 -2.71945e-20 -15.8005)
(83.7299 0 -14.677)
(77.6303 0 -13.4902)
(71.778 4.93427e-18 -12.3043)
(65.6621 0 -11.1193)
(58.0797 0 -9.53653)
(51.0119 0 -8.68126)
(45.0844 0 -7.33489)
(37.2679 0 -5.91323)
(32.0509 0 -4.75663)
(23.7327 0 -3.3101)
(18.7634 -1.72615e-17 -2.3459)
(9.82666 1.36396e-17 -0.797813)
(4.87384 0 0.0796425)
(-3.31789 1.09999e-17 1.81362)
(-9.27419 0 2.93538)
(-17.2253 0 4.65071)
(-25.4121 -2.23485e-17 6.35686)
(-33.4678 0 7.24982)
(-41.4928 1.77472e-17 9.04129)
(-48.214 -2.12668e-17 10.3959)
(-56.8657 0 12.035)
(-64.0592 -2.05624e-17 13.5133)
(-73.1148 0 15.3129)
(-82.2504 0 17.0383)
(-91.5146 0 18.858)
(-101.477 -3.19529e-17 20.7351)
(-110.804 -3.17736e-17 22.6005)
(-121.091 -7.38494e-20 24.6222)
(-131.256 7.69038e-17 26.6551)
(-141.963 -2.7809e-20 28.7678)
(-153.427 0 31.0049)
(-164.69 0 33.1217)
(-177.079 7.61825e-17 35.5214)
(-189.744 -1.10868e-20 37.8296)
(-201.748 0 40.1164)
(-215.323 0 42.6765)
(-228.218 5.33943e-17 45.0672)
(-241.02 -2.29806e-20 47.4987)
(-254.943 8.58732e-21 50.1356)
(-268.124 0 52.6352)
(-282.503 0 55.424)
(-297.576 6.89999e-17 58.3066)
(-312.623 -1.06823e-16 61.2053)
(-328.431 0 64.2645)
(-345.197 0 67.4871)
(-361.596 0 70.6161)
(-379.155 0 74.0222)
(-397.61 0 77.5271)
(-415.852 0 81.0509)
(-436.059 0 84.9213)
(-455.641 0 88.6749)
(-476.605 2.71338e-16 92.7306)
(-498.413 8.4275e-17 96.9188)
(-520.32 1.04854e-16 101.151)
(-543.743 -7.93059e-17 105.659)
(-567.177 1.93409e-16 110.184)
(-592.256 1.06974e-16 115.017)
(-618.004 1.07087e-16 119.971)
(-644.177 0 125.016)
(-672.892 0 130.563)
(-702.687 0 136.311)
(-732.987 0 142.163)
(-764.355 2.70159e-16 148.229)
(-796.371 0 154.41)
(-829.749 0 160.877)
(-864.528 -1.76572e-16 167.589)
(-900.128 0 174.472)
(-937.198 3.15234e-16 181.645)
(-975.953 -3.17399e-16 189.149)
(-1015.77 0 196.845)
(-1057.07 0 204.842)
(-1099.9 0 213.128)
(-1143.69 -2.87157e-16 221.598)
(-1188.81 0 230.331)
(-1235.42 3.01896e-16 239.35)
(-1282.15 1.28231e-19 248.41)
(-1332.81 6.34054e-16 258.217)
(-1378.75 1.30467e-15 267.15)
(-1437.24 0 278.492)
(-1481.09 -6.48642e-16 286.965)
(-1534.9 -6.63374e-16 297.493)
(-1604.56 -6.31368e-16 311.241)
(-1597.32 0 309.661)
(-1750.38 -6.02779e-16 340.958)
(-1759.01 0 341.252)
(725.55 0 50.2546)
(684.179 0 17.1976)
(649.708 3.52989e-19 -7.55446)
(607.685 0 -25.3307)
(572.385 -3.08138e-19 -37.2508)
(539.755 4.34902e-19 -44.518)
(511.34 0 -49.5443)
(484.913 -8.75417e-19 -53.3628)
(460.701 1.1451e-18 -56.1406)
(439.106 6.5031e-19 -57.41)
(420.229 6.96348e-19 -57.3374)
(403.19 -7.38236e-19 -56.7185)
(387.04 9.7637e-19 -56.2173)
(371.532 -2.12973e-18 -55.7741)
(356.983 0 -54.9193)
(343.461 -1.84587e-18 -53.4773)
(330.481 0 -51.7146)
(317.471 0 -49.9641)
(304.288 0 -48.2334)
(291.143 1.94608e-18 -46.3163)
(278.129 -6.17739e-20 -44.1246)
(265.055 8.05118e-21 -41.8384)
(251.75 2.00206e-18 -39.7045)
(238.41 0 -37.798)
(225.39 0 -35.9909)
(212.919 0 -34.1832)
(201.046 8.17875e-18 -32.4846)
(189.578 -5.31981e-20 -30.9312)
(178.611 0 -29.4714)
(168.539 0 -28.0582)
(159.012 0 -26.3998)
(149.665 0 -24.5457)
(140.358 6.72788e-18 -22.8875)
(130.237 0 -21.349)
(121.517 -6.87596e-18 -20.0983)
(112.4 0 -18.5739)
(104.017 0 -17.0821)
(95.6579 -4.63037e-18 -15.3466)
(87.1658 0 -13.8444)
(76.9094 0 -11.5567)
(67.1574 7.18508e-18 -10.5024)
(59.0854 -1.25152e-17 -8.62359)
(47.9889 0 -6.59975)
(40.8247 -1.31516e-17 -5.16227)
(29.0797 0 -3.10896)
(22.1652 3.25316e-17 -1.84251)
(10.0505 -6.54144e-21 0.291006)
(2.89141 0 1.55851)
(-8.32554 0 3.91631)
(-16.8589 -7.68182e-18 5.51905)
(-27.8953 -2.38792e-17 7.85001)
(-39.1218 4.22778e-17 9.65885)
(-49.9682 0 11.9345)
(-61.2805 1.66489e-17 13.8637)
(-70.6112 2.00753e-17 15.7073)
(-82.6078 1.06423e-17 17.9884)
(-92.6929 1.94453e-17 20.0023)
(-105.028 0 22.5123)
(-117.617 0 24.837)
(-130.15 3.06356e-17 27.3321)
(-143.792 6.01688e-17 29.8673)
(-156.491 2.99679e-17 32.3848)
(-170.56 -4.927e-20 35.1471)
(-184.365 -3.62806e-17 37.8404)
(-198.841 -2.03663e-17 40.7225)
(-214.25 0 43.6855)
(-229.295 0 46.5899)
(-245.787 -7.17926e-17 49.7923)
(-262.454 -8.54746e-17 52.8504)
(-278.316 0 55.8685)
(-296.191 -4.24811e-17 59.2572)
(-313.168 -5.02757e-17 62.3699)
(-329.947 -4.8863e-17 65.5675)
(-348.139 -1.14841e-16 69.0012)
(-365.334 0 72.2567)
(-383.96 0 75.8809)
(-403.47 -6.49299e-17 79.6135)
(-422.843 2.00993e-16 83.3154)
(-443.056 5.61396e-17 87.249)
(-464.443 0 91.3188)
(-485.171 0 95.2774)
(-507.268 0 99.558)
(-530.289 0 103.925)
(-552.884 0 108.291)
(-577.795 0 113.06)
(-601.685 1.21689e-16 117.624)
(-627.096 -2.88973e-20 122.547)
(-653.341 -7.90393e-17 127.574)
(-679.405 0 132.598)
(-707.06 -7.44346e-17 137.916)
(-734.392 -9.0756e-17 143.182)
(-763.419 0 148.779)
(-792.854 1.00418e-16 154.428)
(-822.348 2.52737e-16 160.127)
(-854.994 0 166.465)
(-888.859 0 172.996)
(-922.689 0 179.533)
(-956.92 2.53161e-16 186.147)
(-991.066 0 192.741)
(-1025.9 0 199.498)
(-1061.45 -1.65356e-16 206.362)
(-1097.03 1.80017e-16 213.242)
(-1133.19 0 220.258)
(-1170.07 0 227.407)
(-1206.75 0 234.506)
(-1243.71 0 241.677)
(-1280.74 0 248.855)
(-1317.03 7.85417e-20 255.884)
(-1352.86 0 262.84)
(-1388.3 -2.82502e-16 269.713)
(-1421.34 5.96559e-16 276.16)
(-1456.77 0 283.041)
(-1482.63 -1.43097e-19 288.159)
(-1523.18 0 296.129)
(-1536.55 1.49785e-19 298.697)
(-1571.72 0 305.901)
(-1601.87 5.90304e-16 312.185)
(-1556.43 0 303.037)
(-1694.3 -5.63234e-16 331.2)
(-1625.86 0 316.467)
(714.263 0 67.7442)
(694.995 0 35.7238)
(671.106 0 10.7297)
(642.464 0 -9.16296)
(615.446 2.91256e-19 -23.6936)
(589.166 7.47878e-20 -34.1223)
(564.549 0 -42.329)
(540.923 8.27382e-19 -48.744)
(519.018 0 -53.3984)
(499.186 -1.10412e-18 -56.1445)
(481.198 0 -57.5437)
(464.244 6.9772e-19 -58.4023)
(447.8 0 -59.1182)
(431.972 2.01243e-18 -59.4503)
(417.05 -8.10346e-19 -59.018)
(402.888 1.62485e-18 -57.8608)
(388.923 -1.78773e-18 -56.3542)
(374.713 -1.9704e-18 -54.7755)
(360.257 0 -53.0494)
(345.766 -1.83853e-18 -50.9896)
(331.239 -1.70772e-18 -48.6101)
(316.441 -3.57704e-18 -46.1685)
(301.254 -1.8912e-18 -43.918)
(285.956 0 -41.9074)
(270.941 0 -40.0088)
(256.419 0 -38.1276)
(242.445 -3.8325e-18 -36.3864)
(228.878 -4.40887e-18 -34.8235)
(215.838 0 -33.3019)
(203.74 0 -31.733)
(192.202 3.09155e-18 -29.858)
(180.791 0 -27.6858)
(169.376 2.90973e-20 -25.72)
(157.136 -8.07306e-18 -24.0629)
(146.443 6.47799e-18 -22.5786)
(135.213 0 -20.7306)
(124.921 0 -19.0529)
(114.371 4.37069e-18 -16.8268)
(103.841 0 -15.0752)
(91.3621 0 -12.1674)
(79.3459 -6.78075e-18 -11.0575)
(69.4764 1.18102e-17 -8.67847)
(55.476 0 -6.17126)
(46.8007 1.24089e-17 -4.52801)
(31.9746 0 -1.97263)
(23.4229 -1.53044e-17 -0.477643)
(8.59512 -1.21491e-17 2.13706)
(-0.542782 0 3.73196)
(-14.2811 -9.79565e-18 6.62598)
(-25.0324 7.2446e-18 8.62165)
(-38.6893 4.50729e-17 11.4869)
(-52.3796 -1.99659e-17 13.1006)
(-65.4133 2.37526e-17 16.9927)
(-79.6551 -2.81603e-20 18.7618)
(-91.0904 0 21.0038)
(-105.855 -1.00309e-17 23.8117)
(-118.346 -1.83263e-17 26.2539)
(-133.252 1.22501e-17 29.351)
(-148.618 -1.98922e-17 32.1281)
(-163.688 -2.88634e-17 35.1553)
(-180.185 -2.82875e-17 38.176)
(-195.481 2.82441e-17 41.1874)
(-212.401 -1.72228e-17 44.5063)
(-228.924 0 47.6653)
(-246.132 0 51.1132)
(-264.356 -4.05064e-17 54.5535)
(-282.028 0 58.0161)
(-301.264 0 61.7639)
(-320.476 4.02292e-17 65.2925)
(-338.728 0 68.7785)
(-359.252 3.99682e-17 72.6919)
(-378.677 9.45773e-17 76.1942)
(-397.755 0 79.8274)
(-418.38 5.40011e-17 83.6933)
(-437.748 0 87.3382)
(-458.576 0 91.4074)
(-480.302 6.09723e-17 95.5574)
(-501.686 -9.44473e-17 99.6081)
(-523.78 5.53303e-21 103.934)
(-547.051 0 108.316)
(-569.311 0 112.561)
(-592.859 0 117.124)
(-617.127 8.47428e-17 121.708)
(-640.607 -8.07778e-17 126.25)
(-666.362 0 131.173)
(-690.572 -2.28394e-16 135.775)
(-716.084 -1.19571e-16 140.732)
(-742.087 1.48308e-16 145.694)
(-767.396 9.22888e-17 150.564)
(-793.935 1.39666e-16 155.662)
(-819.556 0 160.591)
(-846.464 0 165.788)
(-873.119 -9.41572e-17 170.885)
(-899.145 -2.36944e-16 175.946)
(-928.355 2.05756e-16 181.682)
(-958.515 0 187.502)
(-987.618 0 193.125)
(-1015.85 -2.37195e-16 198.571)
(-1042.77 -1.83996e-16 203.768)
(-1069.06 0 208.889)
(-1094.77 1.54859e-16 213.862)
(-1119.2 -1.68565e-16 218.594)
(-1142.71 0 223.189)
(-1165.27 0 227.588)
(-1185.86 0 231.592)
(-1204.99 0 235.341)
(-1222.24 0 238.714)
(-1236.75 2.51411e-16 241.55)
(-1248.76 0 243.931)
(-1258.39 0 245.838)
(-1263.25 0 246.887)
(-1269.12 -5.54321e-16 248.07)
(-1261.43 -5.70396e-16 246.808)
(-1271.06 0 248.848)
(-1242.04 5.66957e-16 243.309)
(-1251.06 0 245.632)
(-1227.59 5.51381e-16 241.533)
(-1153.97 0 227.178)
(-1252.87 5.26362e-16 247.347)
(-1122.44 0 220.959)
(679.516 -1.85786e-19 79.5662)
(672.84 -1.85674e-19 50.9337)
(658.188 2.16047e-19 27.9549)
(640.795 2.63178e-19 8.04653)
(621.694 0 -7.57169)
(602.019 -2.78769e-19 -20.1988)
(582.231 0 -30.6217)
(562.869 6.70265e-19 -38.8813)
(544.627 5.38445e-19 -44.9921)
(527.671 1.00693e-18 -49.1821)
(511.576 -7.16288e-19 -52.1708)
(495.807 8.98823e-19 -54.5631)
(480.287 0 -56.4476)
(465.331 0 -57.5054)
(451.092 7.64524e-19 -57.5455)
(437.236 7.79095e-21 -56.8112)
(423.226 -4.61789e-20 -55.712)
(408.807 3.14383e-20 -54.4278)
(394.108 0 -52.8201)
(379.301 0 -50.7575)
(364.286 0 -48.3676)
(348.799 3.44884e-18 -45.9703)
(332.783 1.83953e-18 -43.804)
(316.59 0 -41.8827)
(300.622 0 -40.0841)
(285.042 3.0793e-18 -38.3316)
(269.889 0 -36.7543)
(255.067 0 -35.3824)
(240.721 0 -33.993)
(227.287 0 -32.4402)
(214.396 -2.44115e-20 -30.5014)
(201.571 0 -28.1633)
(188.691 4.05988e-20 -26.0288)
(175.001 7.61112e-18 -24.4142)
(162.876 1.15835e-20 -22.8388)
(150.105 0 -20.7814)
(138.476 0 -19.0656)
(126.248 0 -16.4438)
(114.226 0 -14.559)
(100.201 0 -11.1624)
(86.5685 0 -10.1807)
(75.4691 0 -7.35805)
(59.1935 -6.86881e-18 -4.5506)
(49.6469 -1.16335e-17 -2.80494)
(32.3679 0 0.0979164)
(22.6975 -1.41241e-17 1.70514)
(5.8784 0 4.65479)
(-4.763 0 6.46353)
(-20.2634 1.84466e-17 9.75688)
(-32.6041 0 11.9992)
(-48.0614 -2.12417e-17 15.2723)
(-63.33 0 17.0475)
(-77.9159 -4.46033e-17 21.3263)
(-94.1778 -1.28831e-20 23.2676)
(-106.987 0 25.7727)
(-123.615 0 28.931)
(-137.712 0 31.6311)
(-154.156 -2.31442e-17 35.1277)
(-171.248 3.73716e-17 38.1425)
(-187.775 2.72614e-17 41.4951)
(-205.911 2.63675e-17 44.7578)
(-222.647 -5.3134e-17 48.0379)
(-241.082 -1.61892e-17 51.6535)
(-258.981 0 55.0115)
(-277.468 0 58.7473)
(-296.928 7.41058e-20 62.3456)
(-315.645 0 66.0347)
(-335.82 0 69.9615)
(-355.688 3.79449e-17 73.5651)
(-374.431 0 77.1465)
(-395.477 0 81.1692)
(-415.239 -8.88482e-17 84.6356)
(-434.473 4.31437e-17 88.2928)
(-455.196 0 92.1407)
(-474.419 0 95.7254)
(-494.92 0 99.7572)
(-516.139 -5.72622e-17 103.799)
(-536.739 0 107.652)
(-557.723 -9.91178e-17 111.796)
(-579.665 9.05807e-17 115.864)
(-600.221 0 119.766)
(-621.723 0 123.934)
(-643.524 -7.95212e-17 128.012)
(-664.095 6.15854e-20 131.995)
(-686.529 -7.42535e-17 136.262)
(-706.85 1.07085e-16 140.082)
(-727.973 -1.12065e-16 144.206)
(-748.99 -6.952e-17 148.18)
(-768.7 -8.65293e-17 151.954)
(-788.958 2.78004e-20 155.83)
(-807.615 0 159.402)
(-826.864 8.82263e-17 163.123)
(-845.014 0 166.556)
(-861.774 0 169.866)
(-881.326 -1.92755e-16 173.816)
(-901.326 0 177.679)
(-919.134 0 181.104)
(-934.734 0 184.085)
(-947.867 1.72278e-16 186.604)
(-959.072 0 188.815)
(-968.524 1.44893e-16 190.644)
(-975.594 0 192.02)
(-980.556 0 193.04)
(-983.281 0 193.607)
(-982.91 0 193.559)
(-980.066 0 193.073)
(-974.33 2.46414e-16 192.006)
(-965.097 2.34996e-16 190.256)
(-952.736 -2.53586e-16 187.942)
(-937.68 0 185.084)
(-917.495 0 181.33)
(-899.062 1.03631e-15 177.813)
(-865.938 0 171.747)
(-854.805 -5.33164e-16 169.768)
(-797.983 0 159.026)
(-797.061 -5.41305e-16 159.394)
(-740.057 -5.15257e-16 148.806)
(-667.731 0 134.968)
(-743.436 4.91588e-16 149.517)
(-597.616 0 120.718)
(631.795 1.74728e-19 88.5804)
(631.452 2.32917e-19 64.1531)
(623.457 -2.03431e-19 43.9009)
(613.431 3.79939e-20 25.0261)
(600.26 3.92119e-19 9.1258)
(585.896 0 -4.66501)
(570.684 0 -16.2259)
(555.638 -6.3148e-19 -25.5072)
(541.101 -1.11921e-18 -32.6144)
(527.019 2.12855e-19 -38.0451)
(512.996 6.74909e-19 -42.4367)
(498.882 -8.46852e-19 -46.08)
(484.932 8.6949e-19 -48.8254)
(471.482 0 -50.4182)
(458.477 0 -50.8984)
(445.471 -7.10641e-19 -50.6417)
(432.049 3.34368e-18 -50.0047)
(418.17 3.41462e-18 -49.0483)
(404.047 0 -47.6092)
(389.772 0 -45.6447)
(375.142 0 -43.3924)
(359.886 7.50033e-20 -41.2066)
(344.02 -3.50026e-18 -39.287)
(327.945 1.57679e-18 -37.6085)
(312.038 2.77752e-18 -36.0655)
(296.384 -5.72401e-18 -34.6127)
(280.988 3.23505e-18 -33.3791)
(265.794 3.71991e-18 -32.3747)
(250.973 3.61122e-18 -31.2932)
(236.982 0 -29.9228)
(223.496 -2.72215e-18 -28.0805)
(210.017 2.65746e-18 -25.7423)
(196.432 -2.89212e-18 -23.5982)
(182.077 -7.17344e-18 -22.1897)
(169.196 -1.15457e-17 -20.6746)
(155.601 0 -18.5497)
(143.349 0 -16.9587)
(130.107 -3.98332e-18 -14.0585)
(117.309 0 -12.2047)
(102.583 5.65028e-18 -8.48589)
(88.1492 5.63718e-18 -7.83826)
(76.5605 0 -4.64978)
(58.8444 1.30262e-17 -1.77073)
(49.2147 1.09486e-17 -0.0492963)
(30.35 0 3.01247)
(20.2532 1.32909e-17 4.58012)
(2.36481 1.07029e-17 7.68602)
(-9.08475 0 9.55133)
(-25.3961 -1.73385e-17 13.0656)
(-38.4796 6.64652e-18 15.3603)
(-54.6848 2.00114e-17 18.8691)
(-70.5599 0 20.5524)
(-85.624 1.90421e-19 25.0611)
(-102.842 -2.77238e-17 26.9279)
(-116.097 0 29.5202)
(-133.447 0 32.8037)
(-148.111 1.61293e-17 35.5433)
(-164.848 1.09197e-17 39.2014)
(-182.36 -3.4979e-17 42.1912)
(-199.047 -2.56268e-17 45.6169)
(-217.355 -2.47843e-17 48.8288)
(-234.14 2.49638e-17 52.1067)
(-252.519 3.04666e-17 55.7085)
(-270.218 0 58.9526)
(-288.324 0 62.6508)
(-307.227 7.13304e-17 66.0551)
(-325.216 0 69.6122)
(-344.372 0 73.3265)
(-362.882 -3.56387e-17 76.5939)
(-380.123 0 79.8819)
(-399.466 3.53399e-17 83.582)
(-417.37 2.83488e-20 86.5782)
(-434.576 -4.05039e-17 89.8365)
(-453.035 0 93.2079)
(-469.812 0 96.2823)
(-487.533 0 99.8008)
(-505.639 -5.38082e-17 103.227)
(-522.831 0 106.366)
(-539.985 4.65137e-17 109.799)
(-557.71 -1.69808e-16 112.989)
(-573.74 0 115.995)
(-590.236 0 119.188)
(-606.504 0 122.157)
(-621.163 6.80412e-20 124.995)
(-637.052 6.96108e-17 127.976)
(-650.377 1.00268e-16 130.403)
(-663.939 1.05032e-16 133.071)
(-676.749 -6.51335e-17 135.426)
(-687.777 0 137.498)
(-698.641 -6.13657e-17 139.542)
(-707.405 0 141.184)
(-716.133 -8.26386e-17 142.867)
(-723.088 0 144.106)
(-728.189 0 145.204)
(-735.685 0 146.912)
(-743.271 2.23807e-16 148.379)
(-747.915 1.79305e-16 149.229)
(-749.609 0 149.483)
(-748.389 -1.61161e-16 149.201)
(-744.708 1.79148e-16 148.524)
(-738.925 -1.35573e-16 147.396)
(-730.601 1.47391e-16 145.782)
(-720.048 0 143.801)
(-707.194 0 141.343)
(-691.503 0 138.323)
(-673.809 0 134.965)
(-653.811 -2.3042e-16 131.135)
(-631.319 -7.88935e-20 126.816)
(-606.87 4.74057e-16 122.173)
(-581.247 0 117.274)
(-552.065 0 111.818)
(-527.065 -4.84218e-16 107.021)
(-488.447 0 100.022)
(-476.998 4.98244e-16 97.9131)
(-416.548 0 86.7662)
(-426.253 1.01133e-15 88.9433)
(-364.213 0 77.4531)
(-314.005 0 68.3038)
(-390.59 -4.59221e-16 81.7808)
(-260.518 0 56.632)
(580.258 0 97.2004)
(582.195 -5.45753e-20 76.6575)
(577.382 0 58.6831)
(570.79 -2.6892e-19 41.0065)
(561.044 -7.98515e-19 25.37)
(550.179 0 11.4073)
(538.449 3.55071e-19 -0.364775)
(526.715 0 -10.0064)
(514.935 -1.50933e-19 -17.757)
(502.949 -1.57034e-18 -24.1456)
(490.579 0 -29.5498)
(478.039 0 -33.9734)
(465.719 -8.18137e-19 -37.1819)
(453.809 0 -39.0927)
(442.057 0 -39.9525)
(430.015 0 -40.1677)
(417.465 -1.61018e-18 -39.9695)
(404.558 -1.59306e-18 -39.3094)
(391.519 -1.36678e-18 -38.0501)
(378.322 0 -36.2604)
(364.672 0 -34.2627)
(350.326 -1.62108e-18 -32.4076)
(335.373 1.66292e-18 -30.8383)
(320.229 -1.48346e-18 -29.4973)
(305.211 -2.61306e-18 -28.3106)
(290.307 5.27203e-18 -27.2757)
(275.475 -1.28007e-20 -26.5144)
(260.699 -3.49935e-18 -26.0055)
(246.175 -3.397e-18 -25.3669)
(232.376 0 -24.3203)
(219.039 0 -22.7222)
(205.67 -2.4996e-18 -20.5432)
(192.152 0 -18.545)
(177.919 6.74679e-18 -17.4841)
(164.999 5.44046e-18 -16.1721)
(151.336 -4.73765e-18 -14.1307)
(139.215 0 -12.8206)
(125.698 3.74585e-18 -9.76725)
(112.918 5.98432e-18 -8.13995)
(98.3918 1.16493e-20 -4.27905)
(84.0233 -1.047e-17 -4.16492)
(72.7605 0 -0.696562)
(54.5364 -6.16885e-18 2.00856)
(45.6587 0 3.57099)
(26.2075 0 6.59364)
(16.4609 0 7.95542)
(-1.48901 -5.04881e-20 11.0276)
(-12.9199 0 12.7676)
(-29.0229 8.14316e-18 16.3077)
(-41.9022 -1.26125e-17 18.4342)
(-57.7286 -1.88057e-17 21.989)
(-73.1835 0 23.1534)
(-87.5207 1.9474e-17 28.0424)
(-104.58 2.60602e-17 29.4289)
(-117.282 0 31.9216)
(-134.138 0 35.0873)
(-148.256 -1.51514e-17 37.6332)
(-164.03 -1.04888e-17 41.201)
(-180.609 1.63851e-17 43.8959)
(-196.155 2.42165e-17 47.1396)
(-213.168 0 50.0063)
(-228.622 0 53.0145)
(-245.422 6.82304e-20 56.2954)
(-261.405 2.81693e-17 59.1257)
(-277.582 0 62.4745)
(-294.272 -3.34278e-17 65.3581)
(-309.94 0 68.4591)
(-326.378 0 71.6192)
(-341.825 0 74.2089)
(-355.92 0 76.8859)
(-371.746 3.84193e-20 79.9121)
(-386.036 3.81816e-20 82.098)
(-399.526 3.79785e-17 84.6301)
(-413.925 0 87.1761)
(-426.574 3.46564e-17 89.4107)
(-439.789 0 92.0751)
(-453.004 5.04565e-17 94.5355)
(-465.084 -7.76709e-17 96.6234)
(-476.742 4.37994e-17 99.0157)
(-488.551 7.95287e-17 100.99)
(-498.521 0 102.8)
(-508.523 -7.96933e-17 104.717)
(-517.83 0 106.294)
(-525.372 6.6466e-17 107.743)
(-533.533 6.51021e-17 109.197)
(-538.958 -9.39321e-17 110.049)
(-544.241 0 111.112)
(-548.332 1.22027e-16 111.739)
(-550.525 0 112.071)
(-552.122 -5.75682e-17 112.296)
(-551.542 0 112.107)
(-550.678 -7.73742e-17 111.919)
(-547.843 0 111.23)
(-543.235 -1.94315e-16 110.491)
(-541.001 1.68785e-16 110.408)
(-538.932 -2.09439e-16 110.006)
(-533.831 -1.67777e-16 108.931)
(-525.932 0 107.284)
(-515.59 3.01513e-16 105.202)
(-503.223 -3.35034e-16 102.83)
(-489.36 0 100.121)
(-473.737 -1.37847e-16 97.076)
(-456.765 0 93.846)
(-438.465 0 90.3163)
(-418.599 2.15147e-16 86.4771)
(-398.094 0 82.5724)
(-376.733 0 78.4736)
(-354.584 -2.05308e-16 74.2171)
(-332.186 -4.4287e-16 69.9834)
(-310.437 -2.15556e-16 65.8393)
(-286.841 0 61.504)
(-269.511 0 58.1776)
(-239.563 0 53.0002)
(-240.078 0 53.0789)
(-189.554 -4.6189e-16 44.2382)
(-216.985 -4.72286e-16 49.3587)
(-163.629 0 39.6868)
(-135.838 0 35.2514)
(-222.418 0 49.045)
(-110.812 0 27.9761)
(532.196 1.78761e-19 106.437)
(533.534 0 88.651)
(528.868 3.27601e-19 72.2424)
(522.954 0 55.7918)
(514.585 4.03712e-19 40.9569)
(505.468 0 27.6101)
(495.671 -3.33679e-19 16.2277)
(485.658 6.42183e-19 6.6016)
(475.175 1.47516e-18 -1.55229)
(464.147 -9.06233e-20 -8.58482)
(452.691 0 -14.5645)
(441.229 0 -19.3264)
(430.088 0 -22.7073)
(419.234 0 -24.822)
(408.305 0 -26.0324)
(396.972 0 -26.6796)
(385.24 1.64618e-18 -26.8475)
(373.379 -1.43692e-18 -26.4228)
(361.556 1.28459e-18 -25.3415)
(349.607 0 -23.7855)
(337.178 0 -22.1214)
(324.078 1.70391e-18 -20.6577)
(310.468 1.61782e-18 -19.4743)
(296.742 1.34433e-18 -18.4988)
(283.123 0 -17.7056)
(269.493 -2.4581e-18 -17.142)
(255.766 -5.71767e-18 -16.9156)
(241.971 3.21827e-18 -16.9671)
(228.329 0 -16.8514)
(215.312 0 -16.2278)
(202.726 0 -14.9885)
(190.1 2.53718e-18 -13.0991)
(177.293 0 -11.3723)
(163.841 0 -10.7541)
(151.52 5.1868e-18 -9.76133)
(138.455 4.45113e-18 -7.93883)
(127.126 0 -7.0342)
(114.025 3.67713e-18 -3.94549)
(102 -1.1113e-17 -2.74176)
(88.479 -5.00188e-18 1.09698)
(74.9392 4.85614e-18 0.519496)
(64.7526 0 4.18867)
(46.8962 0 6.49652)
(39.5161 0 7.77604)
(20.446 8.16288e-18 10.5842)
(11.778 0 11.5889)
(-5.3003 -9.40037e-18 14.4546)
(-15.898 -7.72042e-18 15.8914)
(-30.8743 0 19.2819)
(-42.6723 5.97748e-18 21.023)
(-57.1272 0 24.4644)
(-71.1336 0 25.097)
(-83.8206 1.78835e-17 29.7739)
(-99.6973 2.19621e-20 30.683)
(-110.947 -1.42441e-17 32.9222)
(-126.244 0 35.7508)
(-138.84 0 37.9007)
(-152.623 9.84397e-18 41.1599)
(-167.141 0 43.3357)
(-180.506 -2.27246e-17 46.1927)
(-195.055 0 48.4761)
(-208.103 0 51.0101)
(-222.175 -2.70973e-17 53.7313)
(-235.321 -5.27292e-17 55.9284)
(-248.476 -1.55074e-17 58.701)
(-261.815 0 60.8399)
(-274.126 0 63.2696)
(-286.806 -2.5755e-17 65.6572)
(-298.214 -3.17329e-17 67.3724)
(-308.277 0 69.2673)
(-319.638 -3.11256e-17 71.4345)
(-329.46 3.66183e-17 72.6524)
(-338.492 -3.56028e-17 74.3157)
(-348.09 4.17007e-17 75.8932)
(-356.02 -3.24828e-17 77.1739)
(-364.211 0 78.8755)
(-372.088 0 80.2782)
(-378.766 7.27796e-17 81.2533)
(-384.8 -8.22327e-17 82.572)
(-390.675 0 83.3216)
(-394.796 0 83.9742)
(-398.713 7.46469e-17 84.6821)
(-401.685 0 84.9817)
(-403.031 0 85.2136)
(-404.614 -6.09624e-17 85.3524)
(-403.635 -8.78677e-17 84.9145)
(-402.467 0 84.7139)
(-400.018 -5.71265e-17 84.029)
(-395.966 0 83.1141)
(-391.301 5.3882e-17 82.095)
(-384.82 -6.52491e-17 80.7365)
(-378.261 7.24059e-17 79.4221)
(-370.023 7.22608e-17 77.6516)
(-360.555 1.18917e-19 76.0131)
(-353.863 -1.57903e-16 75.1576)
(-347.794 0 73.9769)
(-339.078 1.56888e-16 72.1596)
(-328.32 -1.8134e-16 69.9182)
(-316.098 -1.40975e-16 67.4393)
(-302.776 3.13032e-16 64.8702)
(-288.927 0 62.1459)
(-274.37 -1.28683e-16 59.2921)
(-259.528 0 56.4698)
(-244.441 0 53.5495)
(-229 -2.01103e-16 50.5617)
(-214.026 0 47.7297)
(-199.263 0 44.9115)
(-184.806 1.91703e-16 42.1509)
(-171.021 1.27692e-19 39.6052)
(-158.723 8.75476e-20 37.3044)
(-145.198 2.12387e-16 34.973)
(-138.622 0 33.712)
(-119.356 -4.34135e-16 30.763)
(-131.595 -4.34282e-16 32.9455)
(-91.015 4.31441e-16 26.5023)
(-131.208 4.40705e-16 33.55)
(-85.9761 0 25.5362)
(-70.7148 4.39941e-16 24.4555)
(-164.658 0 38.0738)
(-62.8074 0 19.234)
(491.929 -1.67562e-19 116.012)
(490.851 3.55316e-19 99.9524)
(484.941 3.37525e-20 84.973)
(478.471 3.14327e-19 69.9728)
(470.245 0 56.3336)
(461.518 -2.3289e-19 43.9558)
(452.147 2.47589e-19 33.1293)
(442.291 2.3321e-20 23.6011)
(431.743 -1.51704e-18 15.1916)
(420.64 8.67756e-19 7.8119)
(409.33 0 1.61292)
(398.248 0 -3.2225)