/*--------------------------------*- C++ -*----------------------------------*\
| =========                 |                                                 |
| \\      /  F ield         | OpenFOAM: The Open Source CFD Toolbox           |
|  \\    /   O peration     | Version:  2412                                  |
|   \\  /    A nd           | Website:  www.openfoam.com                      |
|    \\/     M anipulation  |                                                 |
\*---------------------------------------------------------------------------*/
FoamFile
{
    version     2.0;
    format      ascii;
    arch        "LSB;label=32;scalar=64";
    class       surfaceScalarField;
    location    "0.005";
    object      ddtCorrDdt0(phi);
}
// * * * * * * * * * * * * * * * * * * * * * * * * * * * * * * * * * * * * * //

dimensions      [0 3 -2 0 0 0 0];

oriented        oriented;

internalField   nonuniform List<scalar> 
24930
(
0.290742
0.130638
-0.428791
0.231641
0.0582186
0.191637
0.0412943
0.164227
0.0283783
0.143101
0.0199914
0.12782
0.0141636
0.116936
0.0120956
0.107836
0.0112845
0.098939
0.00912892
0.0909012
0.00591354
0.084804
0.00390444
0.0803317
0.00402319
0.076265
0.00473345
0.0719332
0.00438383
0.0678071
0.00318916
0.0643638
0.00250958
0.0614534
0.00279479
0.0584932
0.00324106
0.0553497
0.0030408
0.0522971
0.00246924
0.0495622
0.00230862
0.0469795
0.0026648
0.0443226
0.00290314
0.0416828
0.00258557
0.0392028
0.00220311
0.0370925
0.00208214
0.0351312
0.00206263
0.0328434
0.00222501
0.0307891
0.00181128
0.0291852
0.000925357
0.0274733
0.00137333
0.0264692
0.00169527
0.0250898
0.0015299
0.0226127
0.00250493
0.0218315
0.00100976
0.0199068
0.000651901
0.0185213
0.00187964
0.0186243
0.000557069
0.0155019
0.00234175
0.01471
0.00199306
0.0128024
0.000409021
0.0105448
0.0021215
0.0110032
0.000178673
0.0075644
0.00268501
0.00815057
0.0011652
0.00471814
0.00194657
0.00356145
0.00174404
0.00246688
0.000360145
-0.000175872
0.00228957
0.000121568
0.000874954
-0.00334105
0.00269599
-0.00509131
0.00283649
-0.00736075
0.00122034
-0.00829803
0.00134253
-0.0110948
0.00215421
-0.0119768
0.00147456
-0.0148404
0.00260879
-0.016412
0.00215476
-0.0195779
0.00258548
-0.0219025
0.00265328
-0.0243521
0.00203967
-0.0275479
0.00316507
-0.0291322
0.00199726
-0.0335321
0.00385895
-0.0349359
0.00236574
-0.0402336
0.00417677
-0.0421009
0.00294459
-0.0473785
0.00411052
-0.0502051
0.00361949
-0.0547874
0.00409757
-0.0585964
0.00422617
-0.0630542
0.00435617
-0.0673165
0.00437087
-0.0724246
0.00495509
-0.0766492
0.00434524
-0.0827923
0.00574208
-0.0871352
0.0048593
-0.0940445
0.00629796
-0.0988861
0.00561452
-0.106573
0.00698101
-0.11233
0.00655913
-0.120485
0.00741213
-0.127973
0.00784977
-0.136329
0.00813032
-0.145416
0.00891885
-0.154373
0.00905999
-0.164772
0.0102297
-0.174845
0.0102925
-0.186482
0.0114217
-0.198185
0.0120589
-0.211047
0.0127257
-0.224988
0.0140063
-0.239347
0.0144775
-0.255654
0.0160982
-0.271882
0.016478
-0.290352
0.0180522
-0.308803
0.0188212
-0.329918
0.0206757
-0.351409
0.0217786
-0.375862
0.0241321
-0.401129
0.0255678
-0.429094
0.0276577
-0.458924
0.0300464
-0.491427
0.032439
-0.52655
0.0351233
-0.564422
0.0379351
-0.605722
0.0412499
-0.650045
0.0444156
-0.698375
0.0482285
-0.75046
0.0522013
-0.807222
0.0566783
-0.868869
0.061668
-0.93667
0.0677816
-1.00922
0.0725712
-1.09009
0.0808318
-1.16876
0.0786332
-1.27021
0.101537
-1.36893
0.0985615
-1.47821
0.109477
0.164159
0.646355
0.218062
-0.73506
0.559842
0.146081
0.491572
0.111056
0.437797
0.0807543
0.394663
0.0617643
0.361084
0.0491664
0.334231
0.0413265
0.310744
0.0345559
0.289304
0.0274775
0.270723
0.021605
0.255597
0.0185528
0.242889
0.0176188
0.231084
0.0166881
0.219628
0.0146935
0.20907
0.0125587
0.199671
0.0115857
0.190981
0.0116838
0.182287
0.0117201
0.173504
0.0111434
0.164944
0.0104939
0.15676
0.0104773
0.148704
0.0109175
0.140583
0.0110195
0.132625
0.0103719
0.125045
0.00954951
0.118088
0.00902968
0.111557
0.00852189
0.104935
0.00805471
0.0988796
0.00725657
0.0936269
0.00613267
0.0883089
0.00647192
0.083727
0.00716967
0.0787293
0.00689291
0.0726409
0.00723295
0.0686781
0.00577406
0.0634706
0.00507583
0.0589348
0.00618657
0.0559459
0.00558297
0.0492393
0.00656933
0.0446518
0.00778435
0.0394773
0.00456256
0.0334581
0.00720209
0.0305738
0.00561388
0.0232099
0.00767058
0.0205215
0.00643138
0.0131845
0.00683784
0.00842485
0.00679988
0.00376322
0.00542023
-0.00300119
0.00786206
-0.0064554
0.00679236
-0.0145742
0.00887004
-0.0211615
0.0110641
-0.0276979
0.00591668
-0.0328545
0.00757097
-0.0403307
0.00865304
-0.0458098
0.00823057
-0.0536744
0.00959542
-0.060711
0.0101986
-0.0694925
0.0102902
-0.0778295
0.0113451
-0.0863036
0.0104833
-0.0959158
0.0121965
-0.104063
0.0116138
-0.115508
0.0135475
-0.124165
0.013233
-0.137304
0.0148506
-0.147145
0.0148335
-0.16134
0.0164939
-0.17295
0.016565
-0.186955
0.01746
-0.200581
0.0184433
-0.214858
0.0183703
-0.229411
0.0191775
-0.245255
0.0202249
-0.260535
0.0203004
-0.278816
0.0229532
-0.295719
0.0231474
-0.315959
0.0251345
-0.334963
0.0263207
-0.357559
0.0280311
-0.378806
0.0290896
-0.403785
0.031335
-0.428793
0.0330997
-0.455949
0.0351494
-0.484981
0.0375992
-0.514841
0.0392683
-0.547809
0.0427998
-0.581605
0.0447068
-0.618525
0.0479729
-0.657063
0.0510706
-0.698494
0.0541365
-0.74307
0.0584498
-0.789804
0.0616104
-0.841086
0.0667319
-0.89508
0.0711354
-0.953688
0.0757588
-1.01476
0.0806087
-1.08144
0.0865523
-1.15148
0.0924435
-1.22833
0.100328
-1.30955
0.107345
-1.39747
0.11518
-1.49196
0.124784
-1.59403
0.134506
-1.70383
0.14488
-1.8221
0.156378
-1.94981
0.168807
-2.0868
0.181629
-2.23485
0.196089
-2.39383
0.211336
-2.56612
0.228863
-2.75108
0.246678
-2.954
0.270647
-3.16986
0.288418
-3.40476
0.315787
-3.65035
0.324014
-3.91877
0.370255
-4.22695
0.406294
-4.56631
0.44932
0.532906
0.853877
0.285625
-0.92145
0.781278
0.220969
0.716144
0.175823
0.657241
0.137359
0.607656
0.110682
0.566558
0.0919583
0.53139
0.0778836
0.499542
0.0653738
0.47066
0.0541354
0.44559
0.0458172
0.424338
0.0409962
0.40548
0.0379748
0.387645
0.0346639
0.370603
0.030793
0.354919
0.0276849
0.340547
0.0262197
0.326792
0.0258317
0.312947
0.0253332
0.299031
0.0244415
0.285357
0.0238369
0.271973
0.0240455
0.258563
0.0245834
0.245007
0.024523
0.231686
0.0235215
0.218874
0.0221982
0.206843
0.0211154
0.195473
0.019895
0.184224
0.0185042
0.173819
0.0170391
0.164539
0.015559
0.155186
0.0156678
0.146553
0.0166831
0.137524
0.0164068
0.127393
0.0157944
0.119748
0.0142958
0.110828
0.0134042
0.102527
0.0140827
0.0959384
0.0144788
0.0851254
0.0146954
0.0762352
0.0178329
0.0672818
0.0126529
0.0568674
0.0165002
0.0500096
0.0153551
0.0381442
0.0169127
0.0314263
0.0158636
0.0197345
0.015954
0.0106532
0.0161061
0.00180407
0.0148556
-0.00977054
0.0180878
-0.0177555
0.0174802
-0.0311879
0.0201627
-0.0436596
0.0252895
-0.0548219
0.0150868
-0.0650309
0.0189592
-0.0779055
0.0204732
-0.0888572
0.0205848
-0.102505
0.0222626
-0.11583
0.0246221
-0.131084
0.0243706
-0.146237
0.0268721
-0.161654
0.025913
-0.178571
0.0284478
-0.19425
0.0289475
-0.21367
0.0310061
-0.230541
0.0325535
-0.252456
0.0340453
-0.271206
0.0358318
-0.295179
0.0384958
-0.316416
0.0392562
-0.340725
0.0410754
-0.365091
0.043449
-0.390104
0.0430921
-0.415885
0.0452394
-0.443415
0.0471142
-0.470686
0.048329
-0.502046
0.0531276
-0.532451
0.0550875
-0.566926
0.0580638
-0.600957
0.0622281
-0.639321
0.0646954
-0.676812
0.0679835
-0.719309
0.0726889
-0.762423
0.0764682
-0.808852
0.0814404
-0.858191
0.0865554
-0.909137
0.0906007
-0.964706
0.0979339
-1.02203
0.102719
-1.0838
0.109342
-1.14845
0.116234
-1.2174
0.123074
-1.29121
0.132105
-1.3684
0.139248
-1.45253
0.150155
-1.54226
0.161591
-1.63862
0.171137
-1.73898
0.181746
-1.84672
0.193419
-1.95954
0.205961
-2.0816
0.221668
-2.2101
0.236452
-2.34758
0.252242
-2.49423
0.271701
-2.65091
0.291185
-2.81765
0.311574
-2.99538
0.334296
-3.18474
0.358008
-3.38531
0.382438
-3.59904
0.40962
-3.82498
0.437452
-4.06638
0.47014
-4.31958
0.499938
-4.59491
0.54592
-4.87817
0.571665
-5.18306
0.620737
-5.49922
0.639949
-5.80661
0.677974
-6.2075
0.806692
-6.60869
0.851032
0.933877
0.976677
0.327439
-1.0166
0.927391
0.271321
0.875041
0.226012
0.823487
0.186713
0.777328
0.157067
0.73643
0.134507
0.699252
0.115639
0.664651
0.0989678
0.633143
0.0849292
0.605384
0.0747353
0.58086
0.0678395
0.558149
0.0622592
0.536361
0.0564923
0.515616
0.0509544
0.496364
0.0470454
0.478256
0.0451241
0.460462
0.044198
0.442392
0.0431931
0.424191
0.0421689
0.406142
0.0418452
0.388164
0.0424355
0.369904
0.0431503
0.351339
0.0429935
0.333008
0.0417086
0.315237
0.039923
0.298296
0.0382139
0.282158
0.0361453
0.266285
0.0336492
0.251447
0.0312775
0.238003
0.0292949
0.224459
0.0291283
0.21156
0.0304188
0.198305
0.0302424
0.183915
0.0285234
0.172287
0.0268017
0.159397
0.0258855
0.147009
0.0259394
0.136451
0.0274879
0.121273
0.0271428
0.107741
0.0324323
0.0947317
0.0249498
0.0795063
0.0304839
0.0683276
0.0295913
0.0515931
0.0309147
0.0403708
0.0298368
0.0239888
0.0297208
0.0101287
0.030114
-0.0033133
0.0290035
-0.020104
0.0334248
-0.0330472
0.0332652
-0.0521286
0.0369895
-0.0526259
0.0275972
-0.0870662
0.0474338
-0.102813
0.0359385
-0.121496
0.0380437
-0.138368
0.0389371
-0.158178
0.0410244
-0.17815
0.0457554
-0.200234
0.0452096
-0.222526
0.0495505
-0.245207
0.0486287
-0.269734
0.0522509
-0.293206
0.0542036
-0.320825
0.0565174
-0.346054
0.0604069
-0.376859
0.0619321
-0.404509
0.06588
-0.438115
0.0699919
-0.468724
0.0714106
-0.503033
0.07464
-0.537789
0.0788819
-0.573127
0.0781123
-0.609633
0.082042
-0.648261
0.0850449
-0.68679
0.0876725
-0.730332
0.0953885
-0.773172
0.0995781
-0.820603
0.10383
-0.868127
0.11177
-0.920514
0.115254
-0.972204
0.12118
-1.02982
0.129076
-1.08827
0.135191
-1.15077
0.143794
-1.21674
0.152119
-1.28457
0.158848
-1.35792
0.170814
-1.4333
0.178837
-1.51368
0.189289
-1.59735
0.200454
-1.68581
0.211518
-1.77973
0.225865
-1.87713
0.237126
-1.98276
0.255023
-2.09583
0.275446
-2.21618
0.290429
-2.33999
0.306392
-2.47058
0.323075
-2.60537
0.341495
-2.74885
0.364385
-2.89775
0.386005
-3.05444
0.408482
-3.21875
0.436291
-3.39091
0.46335
-3.57043
0.491044
-3.75774
0.521815
-3.95257
0.552664
-4.15355
0.583677
-4.36205
0.61791
-4.57553
0.651113
-4.79709
0.691574
-5.01905
0.72196
-5.25663
0.783434
-5.48188
0.796913
-5.72631
0.865228
-5.95504
0.868437
-6.14511
0.868393
-6.45854
1.11959
-6.68949
1.08254
1.1966
1.04618
0.346784
-1.06395
1.01589
0.300344
0.978754
0.260825
0.939569
0.225039
0.901563
0.196081
0.865398
0.171817
0.830646
0.150274
0.797614
0.131482
0.767228
0.116111
0.739755
0.104607
0.714383
0.0956869
0.690006
0.0876078
0.666352
0.0798008
0.643815
0.073234
0.622614
0.0689723
0.602116
0.0667615
0.581493
0.0654055
0.560374
0.0641187
0.539023
0.0632699
0.517651
0.0635081
0.496039
0.0646729
0.473819
0.065694
0.45109
0.0655657
0.428542
0.0641424
0.40653
0.0620307
0.385284
0.0597469
0.364859
0.056802
0.344747
0.053123
0.325748
0.0497071
0.308337
0.0471392
0.290786
0.0466917
0.273742
0.0482443
0.256399
0.0482532
0.237857
0.045347
0.22223
0.0432773
0.205432
0.0424934
0.188954
0.0417814
0.174338
0.0446611
0.154877
0.0438956
0.13672
0.0515289
0.119718
0.041421
0.0996292
0.0492262
0.0841342
0.0482771
0.0625524
0.0497056
0.0466922
0.0484311
0.0256414
0.0481642
0.00691094
0.0488976
-0.0111572
0.0479034
-0.0331362
0.0538598
-0.0510068
0.0540831
-0.0758258
0.0594639
-0.0957464
0.0493549
-0.121808
0.0713225
-0.142849
0.0582496
-0.167221
0.0612591
-0.189883
0.0631467
-0.215624
0.0656579
-0.241909
0.0732565
-0.270456
0.0724491
-0.299435
0.0789263
-0.328875
0.0781312
-0.360445
0.0830394
-0.391016
0.0866885
-0.426055
0.0893037
-0.45869
0.095835
-0.497324
0.0974539
-0.532605
0.1037
-0.574315
0.109456
-0.612599
0.111323
-0.655035
0.116281
-0.698147
0.122702
-0.741669
0.121287
-0.786556
0.127238
-0.833739
0.131471
-0.880721
0.135525
-0.933274
0.14656
-0.985038
0.15311
-1.04154
0.158538
-1.09818
0.170572
-1.15981
0.174933
-1.22043
0.183408
-1.28724
0.194577
-1.35452
0.202752
-1.42584
0.214958
-1.50042
0.226258
-1.5763
0.235169
-1.65757
0.251581
-1.74015
0.26221
-1.82714
0.27582
-1.91659
0.29049
-2.00998
0.304902
-2.10789
0.323595
-2.20783
0.337579
-2.3156
0.361973
-2.43082
0.391505
-2.55197
0.41045
-2.67355
0.428866
-2.79862
0.447142
-2.92408
0.46775
-3.05449
0.493973
-3.18599
0.51821
-3.32059
0.542595
-3.45726
0.573262
-3.59544
0.601536
-3.73404
0.629588
-3.87273
0.660721
-4.01032
0.690064
-4.14453
0.718175
-4.2762
0.749344
-4.40143
0.776534
-4.52343
0.813445
-4.63116
0.829755
-4.74567
0.897874
-4.82447
0.875694
-4.92605
0.966879
-4.97418
0.916301
-4.98101
0.875598
-5.12284
1.26085
-5.09684
1.05715
1.26577
1.07603
0.351584
-1.0812
1.05962
0.315125
1.03665
0.283458
1.00967
0.252854
0.980721
0.226053
0.951019
0.20163
0.921176
0.179466
0.892331
0.160368
0.865302
0.144847
0.839907
0.13246
0.815324
0.12177
0.791016
0.111795
0.767285
0.102835
0.74459
0.0960116
0.722821
0.0918438
0.701157
0.0895617
0.678922
0.0879939
0.656026
0.0867643
0.632816
0.0864787
0.609371
0.0875849
0.585331
0.0895078
0.560345
0.0909609
0.534648
0.0910184
0.509059
0.0896717
0.483925
0.0874574
0.459383
0.0847452
0.43555
0.0809934
0.411974
0.0761617
0.38947
0.0716789
0.368666
0.0685194
0.34767
0.0678179
0.326985
0.0696374
0.30608
0.069898
0.283878
0.0658058
0.264613
0.0633393
0.244349
0.062814
0.224167
0.0612499
0.205781
0.0656713
0.182556
0.0645004
0.160257
0.0746112
0.139761
0.0615906
0.115229
0.0723341
0.0958742
0.0709158
0.0699595
0.0728223
0.0497996
0.0712575
0.0245772
0.0708327
0.00138299
0.0720362
-0.0208387
0.0710871
-0.0474277
0.0788332
-0.0696107
0.0792839
-0.0994277
0.0868748
-0.123989
0.0757513
-0.154875
0.0999808
-0.180501
0.085173
-0.209758
0.0893331
-0.237349
0.0923442
-0.268028
0.0951832
-0.299444
0.105935
-0.333193
0.104843
-0.367473
0.113608
-0.402166
0.112924
-0.439171
0.119208
-0.475032
0.12459
-0.515542
0.127426
-0.553388
0.136634
-0.59748
0.138248
-0.637752
0.146642
-0.684579
0.153907
-0.727347
0.155796
-0.774443
0.162534
-0.822168
0.171161
-0.869991
0.168731
-0.91907
0.176636
-0.970331
0.181914
-1.02096
0.187077
-1.0772
0.201314
-1.13211
0.209909
-1.19144
0.21595
-1.25033
0.231772
-1.31385
0.236363
-1.37547
0.246738
-1.44276
0.260471
-1.50947
0.269761
-1.57938
0.284705
-1.65146
0.297863
-1.72344
0.30763
-1.79962
0.327211
-1.87539
0.338828
-1.95389
0.353827
-2.03283
0.370061
-2.11371
0.385764
-2.19674
0.40644
-2.27915
0.420532
-2.36751
0.449451
-2.4616
0.486497
-2.55872
0.506355
-2.65161
0.522723
-2.74325
0.537706
-2.83002
0.555365
-2.91655
0.579622
-2.99858
0.600991
-3.07795
0.621447
-3.15291
0.648546
-3.22254
0.671164
-3.2857
0.69269
-3.34177
0.717026
-3.38953
0.737625
-3.42675
0.755692
-3.45464
0.776979
-3.46929
0.791396
-3.47532
0.819326
-3.46027
0.814783
-3.45195
0.889472
-3.39629
0.820012
-3.3812
0.951862
-3.28566
0.820477
-3.17699
0.767323
-3.21198
1.29523
-3.02988
0.875693
1.21789
1.07724
0.350493
-1.07716
1.07044
0.32312
1.05753
0.298215
1.03956
0.272112
1.01806
0.247492
0.994523
0.224015
0.970231
0.202811
0.946347
0.184604
0.923191
0.169465
0.90033
0.156495
0.877261
0.144622
0.854087
0.133729
0.831454
0.124689
0.809648
0.118347
0.788205
0.114566
0.766267
0.112319
0.74345
0.110755
0.719962
0.109949
0.696145
0.110572
0.671884
0.112742
0.646689
0.115505
0.620268
0.117481
0.592998
0.117906
0.565778
0.116899
0.538897
0.114856
0.51234
0.111923
0.486267
0.107514
0.460311
0.101662
0.435288
0.0961954
0.412001
0.0925027
0.388475
0.0915921
0.36503
0.0936825
0.341459
0.094241
0.316466
0.0890539
0.294305
0.0862094
0.271416
0.0860231
0.248318
0.0835751
0.226869
0.0897601
0.200858
0.0880329
0.175388
0.100677
0.152355
0.0845158
0.12432
0.0988936
0.10204
0.0965227
0.0728429
0.0992586
0.049252
0.0973937
0.0208749
0.0967483
-0.00582005
0.0985529
-0.0311599
0.0975174
-0.061191
0.107195
-0.0864297
0.107571
-0.119825
0.117831
-0.146737
0.104464
-0.181785
0.132774
-0.210595
0.115295
-0.243229
0.120778
-0.274128
0.124899
-0.307986
0.127853
-0.34251
0.14176
-0.379329
0.140268
-0.416619
0.151298
-0.454105
0.150552
-0.493963
0.158178
-0.532277
0.165068
-0.575268
0.167904
-0.615049
0.179512
-0.661112
0.180841
-0.702624
0.190939
-0.750447
0.199234
-0.793394
0.200513
-0.84052
0.208772
-0.887896
0.219294
-0.934942
0.215367
-0.982818
0.224838
-1.03246
0.230678
-1.08075
0.236339
-1.13416
0.253141
-1.18528
0.263034
-1.24011
0.268736
-1.29336
0.28747
-1.35044
0.291221
-1.40431
0.302427
-1.46268
0.317365
-1.51897
0.326359
-1.57701
0.342574
-1.63552
0.355861
-1.69209
0.364712
-1.75096
0.385497
-1.80722
0.396001
-1.86406
0.410133
-1.91884
0.425512
-1.97318
0.440094
-2.0269
0.459942
-2.07718
0.471403
-2.13123
0.502559
-2.18877
0.545001
-2.24633
0.56261
-2.29542
0.572842
-2.33943
0.580566
-2.37452
0.591363
-2.40575
0.609899
-2.42877
0.62482
-2.44584
0.637961
-2.45509
0.658141
-2.45598
0.672058
-2.44812
0.684767
-2.4313
0.70045
-2.40525
0.711352
-2.36862
0.71939
-2.32383
0.731912
-2.26787
0.735656
-2.2072
0.758505
-2.1294
0.737054
-2.06745
0.827433
-1.95971
0.712257
-1.91713
0.909358
-1.78024
0.683281
-1.66931
0.656822
-1.70444
1.32971
-1.50476
0.676696
1.15077
1.06274
0.349988
-1.06113
1.06039
0.329177
1.05195
0.308358
1.03857
0.285368
1.02165
0.262972
1.00264
0.241424
0.982818
0.222085
0.962833
0.20521
0.942493
0.190447
0.921412
0.17701
0.89965
0.164592
0.877823
0.153752
0.856576
0.145422
0.835845
0.139906
0.814913
0.136555
0.793081
0.134383
0.770337
0.133024
0.74712
0.132918
0.723655
0.134616
0.699585
0.137842
0.674325
0.141379
0.64769
0.143897
0.620188
0.144851
0.592726
0.144437
0.565475
0.142833
0.538226
0.139901
0.511163
0.13503
0.48404
0.128363
0.457658
0.122066
0.432999
0.11793
0.408085
0.116849
0.383012
0.119193
0.357925
0.120074
0.331279
0.11397
0.307264
0.110805
0.282889
0.110977
0.257988
0.107662
0.234542
0.115793
0.207098
0.113189
0.179826
0.12833
0.155562
0.108892
0.125418
0.127537
0.101539
0.123717
0.0705735
0.12754
0.0448897
0.125448
0.0148208
0.124483
-0.0139219
0.126984
-0.0408539
0.125663
-0.0726731
0.137312
-0.099186
0.13712
-0.134216
0.150417
-0.158316
0.1303
-0.198646
0.170851
-0.228679
0.14664
-0.262633
0.153558
-0.294631
0.158591
-0.329349
0.161362
-0.36438
0.178114
-0.401534
0.176001
-0.438959
0.189109
-0.476169
0.187949
-0.515714
0.196782
-0.553064
0.204694
-0.594994
0.207208
-0.632915
0.22066
-0.676977
0.221276
-0.715583
0.232427
-0.75996
0.241011
-0.798548
0.240925
-0.840896
0.250196
-0.882834
0.262007
-0.923994
0.256086
-0.965346
0.266522
-1.00787
0.272258
-1.04818
0.277679
-1.0928
0.296064
-1.13392
0.306277
-1.17791
0.310562
-1.21888
0.331045
-1.26276
0.332741
-1.30207
0.343671
-1.3445
0.358231
-1.38333
0.365517
-1.42242
0.381485
-1.46026
0.393154
-1.49455
0.39955
-1.52936
0.419678
-1.5597
0.427318
-1.58894
0.438801
-1.61419
0.451467
-1.63739
0.463292
-1.65802
0.480337
-1.6736
0.487615
-1.6919
0.51985
-1.71246
0.566598
-1.73153
0.580287
-1.74011
0.582515
-1.74265
0.581876
-1.73535
0.585035
-1.72405
0.597587
-1.70451
0.606135
-1.67979
0.612645
-1.64834
0.627062
-1.61043
0.634145
-1.56652
0.640799
-1.51701
0.651201
-1.46266
0.656768
-1.40286
0.659934
-1.3408
0.669561
-1.27404
0.669134
-1.2099
0.694197
-1.13583
0.663067
-1.08653
0.778043
-0.997226
0.622931
-0.990004
0.902214
-0.879842
0.572792
-0.821746
0.599187
-0.905663
1.41292
-0.748053
0.519825
1.1072
1.04526
0.352224
-1.04431
1.04167
0.33501
1.03298
0.316643
1.02035
0.296309
1.00496
0.276469
0.987997
0.257464
0.970209
0.240205
0.951644
0.22449
0.931937
0.209932
0.91107
0.196259
0.889645
0.183876
0.868479
0.173636
0.847917
0.166158
0.827515
0.161229
0.806513
0.158001
0.784552
0.155796
0.761994
0.15473
0.739365
0.155415
0.716666
0.158121
0.693286
0.16219
0.668605
0.166292
0.642587
0.169298
0.615839
0.170891
0.589192
0.17126
0.56264
0.170291
0.535765
0.167536
0.508767
0.162388
0.481561
0.155124
0.454914
0.148168
0.429961
0.14366
0.404796
0.142415
0.379258
0.144951
0.35383
0.146156
0.32673
0.139376
0.301999
0.135948
0.27737
0.136425
0.251908
0.132291
0.227719
0.142443
0.200338
0.138516
0.172799
0.156023
0.148713
0.133303
0.118111
0.156652
0.0941094
0.150963
0.063137
0.155947
0.0369523
0.153782
0.00688144
0.152385
-0.0221927
0.155612
-0.0489337
0.153736
-0.0806775
0.167347
-0.106442
0.165864
-0.141093
0.182648
-0.174248
0.165095
-0.203547
0.197925
-0.232523
0.176916
-0.26557
0.185462
-0.29627
0.191004
-0.329414
0.193284
-0.362278
0.212302
-0.396974
0.209252
-0.431663
0.224157
-0.465558
0.222075
-0.501726
0.231956
-0.534869
0.240212
-0.572458
0.242069
-0.605105
0.25664
-0.643673
0.256081
-0.675868
0.267581
-0.71318
0.275636
-0.743838
0.27345
-0.777723
0.283127
-0.810419
0.295494
-0.84202
0.28722
-0.873168
0.298006
-0.904917
0.302998
-0.933723
0.307569
-0.965989
0.326535
-0.993644
0.336171
-1.02356
0.338192
-1.04917
0.359396
-1.07699
0.358078
-1.09931
0.368021
-1.12368
0.380954
-1.14346
0.38564
-1.16255
0.400392
-1.1793
0.409322
-1.19174
0.412575
-1.20376
0.431032
-1.21051
0.435103
-1.21568
0.443363
-1.21623
0.452762
-1.2146
0.461665
-1.21003
0.475518
-1.2006
0.478862
-1.1946
0.512773
-1.1914
0.564493
-1.18707
0.574479
-1.17269
0.569294
-1.15407
0.56195
-1.12744
0.559437
-1.09939
0.568461
-1.06556
0.573215
-1.02973
0.576183
-0.99054
0.588263
-0.94883
0.59244
-0.905538
0.59744
-0.8609
0.606842
-0.816182
0.611801
-0.770686
0.614808
-0.727665
0.626232
-0.684379
0.626099
-0.647861
0.657505
-0.605432
0.620723
-0.590236
0.762749
-0.538595
0.571271
-0.574423
0.938128
-0.499409
0.497428
-0.493284
0.593557
-0.61111
1.53
-0.489202
0.398708
1.08628
1.03439
0.356996
-1.03709
1.02596
0.3419
1.01463
0.326362
1.00034
0.309167
0.98406
0.292234
0.966476
0.275694
0.947796
0.260039
0.927772
0.245005
0.906293
0.230523
0.883842
0.21691
0.861344
0.204975
0.839467
0.195456
0.818122
0.188498
0.796622
0.183565
0.774405
0.179958
0.751571
0.177476
0.728756
0.176592
0.706402
0.177869
0.684209
0.181216
0.661362
0.185692
0.637287
0.190034
0.612126
0.193412
0.586525
0.195693
0.561149
0.196935
0.535787
0.196681
0.509826
0.194188
0.483493
0.188884
0.456898
0.181199
0.430748
0.173719
0.406274
0.168862
0.381708
0.167401
0.356614
0.170009
0.33176
0.171501
0.305195
0.164312
0.280711
0.160645
0.256856
0.161297
0.23192
0.156407
0.208154
0.168465
0.18214
0.162748
0.155701
0.182389
0.132945
0.156577
0.103477
0.184688
0.0806347
0.17692
0.0513274
0.182847
0.0261349
0.180866
-0.00236101
0.178916
-0.0301546
0.182836
-0.0550338
0.18006
-0.0850404
0.195671
-0.108245
0.191948
-0.140523
0.212562
-0.167477
0.193565
-0.19719
0.225468
-0.22334
0.204337
-0.253577
0.214608
-0.280944
0.220085
-0.310536
0.221648
-0.339133
0.2422
-0.369194
0.237851
-0.399002
0.254278
-0.427335
0.250681
-0.457957
0.261533
-0.484676
0.269389
-0.515775
0.270356
-0.541047
0.285327
-0.572074
0.283232
-0.59599
0.294508
-0.624464
0.301359
-0.645626
0.29651
-0.669556
0.306087
-0.691631
0.318369
-0.712563
0.307661
-0.732599
0.318379
-0.752905
0.322235
-0.769888
0.325684
-0.789771
0.344523
-0.804309
0.353058
-0.820993
0.352476
-0.832573
0.373859
-0.846213
0.369113
-0.854078
0.378017
-0.863606
0.388763
-0.868359
0.390742
-0.872299
0.404144
-0.873718
0.410128
-0.871084
0.410562
-0.868149
0.427383
-0.860255
0.428315
-0.851513
0.433977
-0.83873
0.440771
-0.824856
0.447802
-0.808968
0.459356
-0.789636
0.460256
-0.775496
0.497479
-0.76571
0.555879
-0.756275
0.563466
-0.738209
0.552465
-0.718569
0.540921
-0.693417
0.53538
-0.669764
0.543666
-0.64266
0.547078
-0.616296
0.549152
-0.589235
0.561617
-0.562263
0.565474
-0.536227
0.571334
-0.51096
0.581872
-0.487828
0.588404
-0.465539
0.592914
-0.446811
0.607177
-0.428794
0.608349
-0.417614
0.646143
-0.40131
0.60451
-0.409725
0.771061
-0.384829
0.546354
-0.444712
0.998106
-0.390402
0.442746
-0.410869
0.614555
-0.540859
1.65919
-0.438252
0.296946
1.07857
1.03552
0.364974
-1.04452
1.02265
0.352446
1.00815
0.340416
0.9911
0.326507
0.972355
0.31234
0.952147
0.29786
0.930354
0.283341
0.906838
0.268757
0.881983
0.254491
0.856678
0.241246
0.831825
0.229856
0.807712
0.220732
0.783902
0.213665
0.759737
0.208094
0.735062
0.203696
0.710423
0.200721
0.686564
0.199787
0.663689
0.201227
0.641191
0.204622
0.618156
0.208937
0.59415
0.213142
0.569487
0.216729
0.544781
0.219647
0.520453
0.221713
0.496087
0.222107
0.470937
0.219844
0.445279
0.214415
0.419437
0.206409
0.394031
0.198475
0.370298
0.193222
0.346664
0.191432
0.322429
0.193934
0.298568
0.195629
0.273068
0.188272
0.249356
0.184356
0.226829
0.184972
0.203062
0.179392
0.180508
0.192991
0.156608
0.185158
0.132151
0.206567
0.111256
0.178153
0.0841339
0.210476
0.0631661
0.200814
0.0367444
0.207054
0.0135451
0.20567
-0.0122767
0.203013
-0.0376907
0.207577
-0.0595489
0.203461
-0.0867838
0.221283
-0.106273
0.214168
-0.134999
0.239005
-0.157014
0.21694
-0.183625
0.249986
-0.205858
0.227796
-0.232194
0.239916
-0.255069
0.244653
-0.280082
0.245433
-0.303423
0.266798
-0.327838
0.260795
-0.351896
0.278589
-0.373789
0.27289
-0.398156
0.284807
-0.417831
0.291588
-0.44197
0.291619
-0.459609
0.306436
-0.483004
0.302666
-0.498844
0.313388
-0.518939
0.318667
-0.531363
0.310849
-0.546297
0.320051
-0.559006
0.331886
-0.570842
0.318991
-0.581635
0.329513
-0.592718
0.332192
-0.600492
0.334636
-0.61102
0.353062
-0.615962
0.360454
-0.623452
0.357459
-0.625606
0.379025
-0.63021
0.371001
-0.62935
0.379377
-0.630401
0.388027
-0.627122
0.38782
-0.623524
0.400355
-0.617924
0.403882
-0.609128
0.402424
-0.60077
0.418265
-0.588345
0.417066
-0.576324
0.421276
-0.561304
0.426582
-0.546568
0.433089
-0.531016
0.443505
-0.51354
0.443555
-0.502816
0.48553
-0.497847
0.552154
-0.494375
0.558322
-0.48336
0.542758
-0.472696
0.528786
-0.457852
0.521695
-0.446087
0.530692
-0.431738
0.533752
-0.419197
0.535905
-0.406692
0.549551
-0.394935
0.553724
-0.38466
0.560989
-0.375118
0.572645
-0.367652
0.580659
-0.360633
0.586316
-0.356879
0.603076
-0.352909
0.604663
-0.354704
0.647746
-0.351319
0.601224
-0.368902
0.788535
-0.357211
0.534641
-0.424639
1.06564
-0.379054
0.396762
-0.411419
0.64749
-0.539385
1.7863
-0.448587
0.20705
1.07803
1.05044
0.377558
-1.06468
1.03559
0.368276
1.01801
0.359029
0.998198
0.347793
0.976572
0.335826
0.952999
0.323001
0.927368
0.309574
0.89992
0.295795
0.87147
0.282313
0.843025
0.269884
0.815181
0.259078
0.787817
0.249979
0.760384
0.242278
0.732539
0.235667
0.704629
0.230265
0.67751
0.226628
0.651849
0.225317
0.627535
0.226377
0.603735
0.22919
0.579572
0.232828
0.554826
0.236594
0.529945
0.240238
0.505426
0.243662
0.481404
0.246378
0.457299
0.247232
0.432324
0.245069
0.406837
0.23946
0.381376
0.231143
0.356443
0.222753
0.333174
0.216998
0.310234
0.214725
0.286701
0.216902
0.263679
0.218658
0.239209
0.211318
0.216218
0.207136
0.19496
0.207433
0.172388
0.20125
0.151278
0.215734
0.129454
0.205784
0.107209
0.228364
0.0878667
0.19829
0.06372
0.233422
0.044536
0.222675
0.0215205
0.228072
0.000546742
0.227945
-0.0222244
0.224324
-0.0449619
0.229564
-0.0634181
0.223534
-0.087736
0.244067
-0.103293
0.23225
-0.128322
0.261852
-0.145799
0.235591
-0.168677
0.27087
-0.186889
0.24717
-0.209255
0.261334
-0.227595
0.264644
-0.248143
0.264764
-0.266516
0.286365
-0.285594
0.278408
-0.304423
0.297604
-0.320457
0.289288
-0.339342
0.302563
-0.352932
0.307756
-0.371221
0.306994
-0.382635
0.321348
-0.39999
0.316012
-0.409634
0.326075
-0.423518
0.329759
-0.42964
0.318892
-0.438208
0.327668
-0.444528
0.339025
-0.450486
0.324437
-0.455479
0.334852
-0.461061
0.336599
-0.463606
0.338405
-0.469058
0.356437
-0.469045
0.362992
-0.472278
0.358088
-0.470288
0.380166
-0.471422
0.369319
-0.467639
0.377896
-0.466281
0.384819
-0.461251
0.383152
-0.456514
0.395422
-0.450489
0.397178
-0.442123
0.394756
-0.43491
0.410245
-0.424429
0.407831
-0.415397
0.411528
-0.404087
0.41614
-0.393948
0.42299
-0.383666
0.432895
-0.372478
0.433193
-0.368361
0.480114
-0.37071
0.555818
-0.375357
0.561202
-0.372439
0.541221
-0.370793
0.525588
-0.365119
0.517242
-0.362803
0.5271
-0.357593
0.529621
-0.354201
0.53177
-0.350567
0.546381
-0.347493
0.550657
-0.345358
0.558781
-0.343487
0.571108
-0.343237
0.580112
-0.342642
0.586169
-0.34442
0.604488
-0.346022
0.606566
-0.351898
0.653419
-0.353643
0.603074
-0.372666
0.807443
-0.367582
0.529534
-0.433958
1.13213
-0.395151
0.357528
-0.438301
0.69125
-0.555375
1.90247
-0.473801
0.126436
1.0837
1.07732
0.393431
-1.09267
1.0613
0.386945
1.04155
0.379514
1.01989
0.370488
0.996066
0.360542
0.96978
0.349472
0.941158
0.337558
0.910835
0.325222
0.879787
0.31313
0.848819
0.301855
0.818124
0.291653
0.787346
0.282424
0.756101
0.273977
0.724532
0.26637
0.693425
0.260063
0.663736
0.255708
0.635901
0.253702
0.609519
0.253875
0.583674
0.255598
0.557662
0.25821
0.531494
0.261358
0.505678
0.264943
0.480528
0.268709
0.45589
0.271843
0.431095
0.272935
0.405434
0.270718
0.379366
0.264831
0.353627
0.256144
0.328581
0.247241
0.305159
0.240853
0.282271
0.23794
0.258853
0.23958
0.23607
0.241201
0.212124
0.234
0.189304
0.229579
0.168717
0.229204
0.14679
0.222566
0.126809
0.236979
0.106261
0.225417
0.085897
0.248165
0.0670201
0.218021
0.0459061
0.25349
0.0276307
0.243325
0.00781306
0.246116
-0.0114862
0.248233
-0.0315595
0.243217
-0.05215
0.24936
-0.0676014
0.24064
-0.0897079
0.264755
-0.101997
0.246809
-0.124096
0.281885
-0.138029
0.250491
-0.157739
0.288707
-0.172741
0.263263
-0.19195
0.279695
-0.206662
0.280954
-0.223762
0.280676
-0.238435
0.302157
-0.253472
0.29201
-0.268571
0.312822
-0.280323
0.301464
-0.295433
0.316528
-0.304856
0.319796
-0.319274
0.31849
-0.326721
0.33229
-0.340399
0.325667
-0.346383
0.335077
-0.356787
0.337401
-0.359482
0.323504
-0.364622
0.331898
-0.367754
0.342987
-0.371123
0.327301
-0.373652
0.337737
-0.37717
0.338902
-0.377961
0.340464
-0.38187
0.358193
-0.380558
0.364319
-0.383191
0.358034
-0.380755
0.380964
-0.382082
0.367743
-0.378952
0.377136
-0.378653
0.382616
-0.375191
0.380051
-0.372365
0.392399
-0.368793
0.392891
-0.363384
0.390084
-0.359481
0.405485
-0.352726
0.402393
-0.347955
0.40601
-0.341125
0.410211
-0.335697
0.417622
-0.330309
0.427149
-0.324104
0.427867
-0.324779
0.479416
-0.331502
0.563927
-0.341692
0.569527
-0.343701
0.544681
-0.347155
0.527408
-0.346287
0.517657
-0.348696
0.528167
-0.347609
0.529667
-0.348094
0.531477
-0.347938
0.546713
-0.348165
0.55089
-0.348355
0.5589
-0.348942
0.572046
-0.350839
0.581695
-0.352822
0.588627
-0.356352
0.607632
-0.359195
0.609725
-0.366367
0.660377
-0.370033
0.606852
-0.388076