/*--------------------------------*- C++ -*----------------------------------*\
| =========                 |                                                 |
| \\      /  F ield         | OpenFOAM: The Open Source CFD Toolbox           |
|  \\    /   O peration     | Version:  2412                                  |
|   \\  /    A nd           | Website:  www.openfoam.com                      |
|    \\/     M anipulation  |                                                 |
\*---------------------------------------------------------------------------*/
FoamFile
{
    version     2.0;
    format      ascii;
    arch        "LSB;label=32;scalar=64";
    class       volVectorField;
    location    "0.065";
    object      ddt0(U);
}
// * * * * * * * * * * * * * * * * * * * * * * * * * * * * * * * * * * * * * //

dimensions      [0 1 -2 0 0 0 0];

internalField   nonuniform List<vector> 
12600
(
(3.1048 0 -0.659203)
(1.58922 2.08817e-21 -0.36032)
(0.797786 6.39871e-21 -0.33253)
(0.441722 0 -0.272589)
(0.296589 -1.90377e-22 -0.208032)
(0.212169 0 -0.162606)
(0.15216 -5.63705e-20 -0.129756)
(0.1123 0 -0.100458)
(0.0833291 0 -0.0782094)
(0.0604464 0 -0.0607887)
(0.0416126 0 -0.0464813)
(0.0254596 -2.37362e-19 -0.0343612)
(0.0110848 -2.59632e-19 -0.0239114)
(-0.0018687 0 -0.0148682)
(-0.0133313 6.03786e-19 -0.00705216)
(-0.023256 0 -0.000284695)
(-0.0318857 -2.27953e-22 0.00562043)
(-0.0395097 0 0.0108149)
(-0.0464 3.77057e-19 0.0155098)
(-0.0527593 0 0.0198801)
(-0.0586601 0 0.0239839)
(-0.064318 0 0.0278905)
(-0.0699436 1.75853e-18 0.0316232)
(-0.0753083 -1.8132e-18 0.0350853)
(-0.080536 6.76981e-22 0.0384538)
(-0.0857898 9.5748e-19 0.0417751)
(-0.0906338 0 0.0448951)
(-0.0956404 0 0.0480558)
(-0.100607 0 0.0510579)
(-0.104978 -2.0832e-18 0.0538173)
(-0.109598 -4.24565e-18 0.056621)
(-0.113782 0 0.0592141)
(-0.117873 0 0.0618298)
(-0.1224 -2.21391e-18 0.0645549)
(-0.126815 -2.23842e-18 0.0673187)
(-0.13172 0 0.0702356)
(-0.136679 0 0.0732159)
(-0.141872 -4.61315e-18 0.0762893)
(-0.147105 0 0.0793578)
(-0.152478 -1.67981e-21 0.0825577)
(-0.158204 -4.70964e-18 0.0858479)
(-0.164172 -4.73107e-18 0.0893596)
(-0.170729 0 0.0931059)
(-0.177705 -4.76707e-18 0.0971278)
(-0.185218 -4.7829e-18 0.101399)
(-0.193231 9.57778e-18 0.105948)
(-0.202033 -9.59151e-18 0.110876)
(-0.211279 0 0.116004)
(-0.221565 9.59071e-18 0.121606)
(-0.232468 -9.57573e-18 0.12736)
(-0.244711 0 0.13339)
(-0.257819 4.14651e-22 0.139608)
(-0.270892 9.50136e-18 0.149628)
(-0.285477 0 0.159576)
(-0.302044 -1.88315e-17 0.170317)
(-0.320738 0 0.18209)
(-0.341359 0 0.195193)
(-0.365456 -5.45844e-20 0.208635)
(-0.391884 -5.43004e-20 0.221608)
(-0.420372 1.81947e-17 0.238596)
(-0.453334 -1.80533e-17 0.258003)
(-0.490665 3.58155e-17 0.27979)
(-0.532871 0 0.304401)
(-0.581024 3.50982e-17 0.332694)
(-0.635729 3.47144e-17 0.364904)
(-0.697866 -6.85795e-17 0.401405)
(-0.769057 3.38479e-17 0.44267)
(-0.850056 0 0.489552)
(-0.942649 0 0.543448)
(-1.05034 0 0.606353)
(-1.17442 0 0.678989)
(-1.31475 0 0.761733)
(-1.47917 -6.16713e-17 0.86032)
(-1.6768 6.05276e-17 0.985928)
(-1.91225 0 1.118)
(-2.16276 0 1.26363)
(-2.4506 5.68805e-17 1.4343)
(-2.838 9.73082e-21 1.66261)
(-3.35142 1.08487e-16 1.95902)
(-3.91574 0 2.27775)
(-4.39479 0 2.54261)
(-4.6971 0 2.70623)
(-4.8326 8.13852e-21 2.77844)
(-4.8791 0 2.80435)
(-4.91342 0 2.82601)
(-4.97274 9.16706e-17 2.8624)
(-5.05865 3.86416e-21 2.91319)
(-5.15863 0 2.97109)
(-5.2616 0 3.03004)
(-5.36207 -1.63743e-16 3.08723)
(-5.45923 -1.58858e-16 3.14244)
(-5.55557 -1.54003e-16 3.19732)
(-5.65545 -1.49167e-16 3.25421)
(-5.76291 2.95412e-22 3.31469)
(-5.88074 -6.81354e-22 3.37691)
(-6.00506 1.34894e-16 3.44712)
(-6.13405 0 3.52757)
(-6.27319 0 3.6103)
(-6.42103 0 3.69685)
(-6.57739 4.66343e-16 3.78779)
(-6.7412 -2.24396e-16 3.88279)
(-6.91353 2.15792e-16 3.98255)
(-7.09295 2.07367e-16 4.08631)
(-7.28167 0 4.19538)
(-7.47733 0 4.30838)
(-7.68346 0 4.42743)
(-7.89633 3.51218e-16 4.55028)
(-8.12127 0 4.68016)
(-8.35213 -3.21872e-16 4.81336)
(-8.59836 0 4.95547)
(-8.84629 0 5.09859)
(-9.11858 2.80996e-16 5.25558)
(-9.38157 0 5.4076)
(-9.67909 0 5.57901)
(-9.9781 0 5.7517)
(-10.2494 -4.64902e-16 5.90855)
(-10.6792 0 6.1557)
(-10.8247 4.21366e-16 6.24117)
(-11.3415 0 6.53771)
(-11.6036 -2.0484e-21 6.69261)
(4.56465 3.8235e-21 -0.778614)
(3.66045 -1.46086e-21 -0.744486)
(2.67117 3.10844e-22 -0.847129)
(1.88812 0 -0.802374)
(1.3657 -3.10696e-20 -0.678595)
(1.01908 4.42432e-20 -0.556515)
(0.784024 5.87905e-20 -0.449786)
(0.617585 -7.20387e-20 -0.359409)
(0.489815 0 -0.288242)
(0.388822 0 -0.231132)
(0.306112 0 -0.183547)
(0.236077 0 -0.142761)
(0.175252 0 -0.107276)
(0.121819 0 -0.0763917)
(0.0750789 1.14515e-22 -0.0496046)
(0.0344201 0 -0.0263017)
(-0.00119543 3.55374e-19 -0.005803)
(-0.0328403 0 0.0124646)
(-0.0614369 -7.85165e-19 0.0291234)
(-0.0877672 8.20236e-19 0.0446853)
(-0.112341 0 0.0593173)
(-0.135601 8.84677e-19 0.073167)
(-0.15793 -9.13865e-19 0.0863454)
(-0.179173 9.41812e-19 0.0986935)
(-0.199497 -9.6861e-19 0.11059)
(-0.219311 0 0.122265)
(-0.238259 1.01765e-18 0.13335)
(-0.256872 0 0.144297)
(-0.274976 0 0.154786)
(-0.291858 0 0.164517)
(-0.308473 2.19622e-18 0.174201)
(-0.324389 0 0.183445)
(-0.340088 0 0.192686)
(-0.356484 0 0.202308)
(-0.373089 0 0.212085)
(-0.390495 0 0.222264)
(-0.408293 0 0.232639)
(-0.426443 4.74611e-18 0.243228)
(-0.444856 0 0.253887)
(-0.463742 9.61672e-18 0.264907)
(-0.483475 9.66809e-18 0.276343)
(-0.50431 4.85422e-18 0.288483)
(-0.526682 0 0.301451)
(-0.550576 0 0.315325)
(-0.576049 9.77945e-18 0.33006)
(-0.60319 -9.77919e-18 0.345774)
(-0.632718 9.7883e-18 0.362781)
(-0.663755 0 0.380622)
(-0.698002 -9.76441e-18 0.40022)
(-0.734291 0 0.420773)
(-0.774454 0 0.443161)
(-0.816971 -9.66784e-18 0.46667)
(-0.863316 0 0.49612)
(-0.914106 0 0.527055)
(-0.971108 1.90261e-17 0.561391)
(-1.03497 0 0.599379)
(-1.10568 0 0.641409)
(-1.18659 -8.94685e-20 0.686842)
(-1.27057 1.83545e-17 0.739683)
(-1.36843 3.56239e-20 0.794592)
(-1.48083 0 0.859139)
(-1.608 -3.58676e-17 0.932418)
(-1.75226 -3.54798e-17 1.01586)
(-1.9172 0 1.11116)
(-2.10497 -6.9197e-17 1.2192)
(-2.31867 -9.25494e-21 1.34254)
(-2.5626 0 1.48448)
(-2.84067 3.31402e-17 1.64669)
(-3.16046 0 1.83325)
(-3.53324 0 2.05078)
(-3.96331 0 2.30165)
(-4.45428 0 2.58905)
(-5.03451 1.21456e-16 2.93144)
(-5.73542 -5.95127e-17 3.35081)
(-6.54822 0 3.81544)
(-7.43236 0 4.32655)
(-8.47343 5.56917e-17 4.93416)
(-9.84427 1.43688e-20 5.73631)
(-11.57 1.51683e-20 6.73926)
(-13.3737 0 7.7745)
(-14.843 0 8.60397)
(-15.7442 0 9.10199)
(-16.1519 1.03728e-20 9.32149)
(-16.3178 -9.34432e-17 9.41115)
(-16.466 9.103e-17 9.49743)
(-16.6942 -8.85722e-17 9.63199)
(-16.9982 4.93009e-21 9.80936)
(-17.338 -8.36274e-17 10.0057)
(-17.6807 0 10.2027)
(-18.0121 1.57385e-16 10.3925)
(-18.3328 0 10.5759)
(-18.6535 1.4766e-16 10.7592)
(-18.9883 0 10.9502)
(-19.3486 -2.76209e-16 11.1541)
(-19.7406 -1.33398e-16 11.3667)
(-20.1532 0 11.6066)
(-20.5884 0 11.8691)
(-21.0547 -2.39273e-16 12.1432)
(-21.5478 2.30389e-16 12.4306)
(-22.0679 -4.43316e-16 12.7325)
(-22.6117 2.13116e-16 13.0477)
(-23.1829 -2.0476e-16 13.3784)
(-23.7767 0 13.7219)
(-24.4006 1.88638e-16 14.0828)
(-25.0461 0 14.4559)
(-25.726 0 14.8489)
(-26.4256 -3.31942e-16 15.2532)
(-27.166 0 15.6809)
(-27.9216 -4.23884e-21 16.1176)
(-28.7297 2.9033e-16 16.5842)
(-29.5386 0 17.0519)
(-30.4276 0 17.5649)
(-31.2855 0 18.0607)
(-32.2485 2.40789e-16 18.6173)
(-33.2247 -4.58909e-16 19.1795)
(-34.0924 4.37047e-16 19.6839)
(-35.4953 0 20.4894)
(-35.9506 -3.95767e-16 20.754)
(-37.6585 0 21.7382)
(-38.5554 7.14157e-16 22.2428)
(4.69632 -9.94737e-21 -0.800778)
(4.41782 1.28608e-21 -0.835035)
(3.88938 -1.27524e-20 -0.966042)
(3.2304 0 -1.03356)
(2.595 -2.8502e-20 -1.00079)
(2.07214 -5.83766e-22 -0.905165)
(1.66685 0 -0.78501)
(1.35249 6.83663e-20 -0.665313)
(1.10538 0 -0.558296)
(0.907316 9.33675e-20 -0.465874)
(0.743892 0 -0.385931)
(0.605435 0 -0.315856)
(0.485708 0 -0.253958)
(0.380987 0 -0.199517)
(0.28933 -2.98701e-19 -0.151903)
(0.20921 0 -0.110089)
(0.13872 0 -0.0728736)
(0.0759776 0 -0.0392229)
(0.0193195 3.7273e-19 -0.00822823)
(-0.0327015 2.51168e-22 0.0208292)
(-0.0811031 0 0.0481926)
(-0.126641 3.50964e-22 0.0739878)
(-0.16991 0 0.0984304)
(-0.210858 -8.94959e-19 0.121501)
(-0.249816 0 0.143561)
(-0.287392 0 0.165063)
(-0.323322 -9.65165e-19 0.18562)
(-0.358233 0 0.205495)
(-0.391917 0 0.22462)
(-0.423698 -2.04837e-18 0.242531)
(-0.454649 0 0.260095)
(-0.48449 0 0.277274)
(-0.514003 0 0.294335)
(-0.544218 0 0.312043)
(-0.574864 2.1913e-18 0.330001)
(-0.606488 0 0.348435)
(-0.638618 0 0.367157)
(-0.671227 -4.50086e-18 0.386037)
(-0.704168 0 0.405159)
(-0.737914 -9.11174e-18 0.424779)
(-0.77297 1.85487e-21 0.445258)
(-0.809915 -4.59552e-18 0.466904)
(-0.849306 0 0.489983)
(-0.891267 0 0.514571)
(-0.935806 -4.62799e-18 0.540612)
(-0.983105 0 0.56837)
(-1.03434 -9.25901e-18 0.598311)
(-1.08817 0 0.629854)
(-1.14728 -2.89921e-21 0.664528)
(-1.2098 0 0.701238)
(-1.27858 0 0.74187)
(-1.35161 0 0.784887)
(-1.43427 -9.10016e-18 0.832629)
(-1.52347 0 0.884321)
(-1.62314 0 0.942639)
(-1.73452 0 1.00747)
(-1.85783 0 1.07935)
(-1.99636 3.5135e-17 1.15973)
(-2.14237 0 1.25241)
(-2.31319 8.12076e-21 1.34915)
(-2.50883 0 1.4616)
(-2.73062 1.69184e-17 1.58941)
(-2.98305 3.34517e-17 1.73488)
(-3.27207 0 1.90055)
(-3.59943 6.52222e-17 2.09215)
(-3.97315 3.21599e-17 2.31068)
(-4.40043 0 2.56235)
(-4.88896 -3.12096e-17 2.85035)
(-5.45261 0 3.18256)
(-6.11033 0 3.57001)
(-6.87011 0 4.01677)
(-7.74233 0 4.53175)
(-8.77735 1.66618e-21 5.14711)
(-10.0282 5.59663e-17 5.88314)
(-11.4606 0 6.7197)
(-13.0414 0 7.64485)
(-14.9215 6.46994e-21 8.75958)
(-17.3583 -1.02112e-16 10.2062)
(-20.3357 -4.97406e-17 11.9438)
(-23.361 0 13.661)
(-25.7732 0 14.9836)
(-27.2375 0 15.7535)
(-27.9138 -1.79823e-16 16.0947)
(-28.2213 -1.51893e-21 16.2565)
(-28.5136 -8.53928e-17 16.4303)
(-28.9362 0 16.6842)
(-29.4757 -8.07412e-17 17.0016)
(-30.0655 7.84002e-17 17.3427)
(-30.6531 0 17.6791)
(-31.2172 0 18.0004)
(-31.7618 1.42891e-16 18.3106)
(-32.3069 0 18.6218)
(-32.8765 1.338e-16 18.9476)
(-33.4881 1.14722e-21 19.2961)
(-34.1484 1.24896e-16 19.665)
(-34.8457 -1.20526e-16 20.0747)
(-35.5868 0 20.5117)
(-36.3753 2.23921e-16 20.9721)
(-37.2058 -2.15574e-16 21.4549)
(-38.0792 4.14751e-16 21.9613)
(-38.9898 0 22.4886)
(-39.9438 -1.91516e-16 23.0407)
(-40.9325 0 23.6124)
(-41.969 -1.7639e-16 24.2115)
(-43.0366 1.69118e-16 24.8286)
(-44.1596 0 25.4773)
(-45.3079 3.10281e-16 26.1409)
(-46.5229 0 26.8424)
(-47.752 5.67805e-16 27.5528)
(-49.0685 -2.71303e-16 28.3124)
(-50.3711 0 29.0658)
(-51.806 0 29.8931)
(-53.1747 0 30.6844)
(-54.7046 4.80399e-22 31.5689)
(-56.262 4.28654e-16 32.4628)
(-57.584 -4.0821e-16 33.2378)
(-59.8501 0 34.5302)
(-60.4417 -3.69604e-16 34.8796)
(-63.198 0 36.4798)
(-64.5532 8.81408e-21 37.2187)
(4.5625 5.98861e-21 -0.79124)
(4.52153 1.20885e-21 -0.833562)
(4.35395 5.773e-21 -0.938203)
(4.00742 -1.54957e-20 -1.05542)
(3.54753 -2.67605e-20 -1.11493)
(3.06312 -7.81686e-20 -1.10505)
(2.6088 0 -1.0476)
(2.21025 0 -0.9574)
(1.87021 0 -0.850689)
(1.58382 -8.84298e-20 -0.741676)
(1.3403 0 -0.638618)
(1.13023 0 -0.543979)
(0.946565 0 -0.458047)
(0.784535 0 -0.381031)
(0.641409 0 -0.312628)
(0.515116 -3.01167e-19 -0.251653)
(0.4032 3.19314e-19 -0.19657)
(0.303155 0 -0.146048)
(0.212654 0 -0.0990305)
(0.129596 -7.37298e-19 -0.0547267)
(0.0524276 7.6675e-19 -0.0128819)
(-0.0199519 -7.95129e-19 0.0265778)
(-0.0883979 8.2231e-19 0.0639353)
(-0.153011 8.47338e-19 0.0993123)
(-0.214261 -8.71204e-19 0.13305)
(-0.272955 8.94209e-19 0.165771)
(-0.328968 0 0.197113)
(-0.383055 -9.34601e-19 0.227146)
(-0.435061 0 0.256045)
(-0.484383 1.93849e-18 0.283299)
(-0.532202 0 0.309877)
(-0.5784 0 0.336128)
(-0.624011 0 0.362169)
(-0.670163 -2.05261e-18 0.389024)
(-0.716803 -2.07272e-18 0.416177)
(-0.764455 0 0.443781)
(-0.812607 0 0.471657)
(-0.861278 4.25582e-18 0.499605)
(-0.91029 0 0.527917)
(-0.96036 -8.04486e-22 0.556863)
(-1.01214 -4.32937e-18 0.58711)
(-1.06651 0 0.618958)
(-1.12417 0 0.652811)
(-1.1854 0 0.688715)
(-1.25018 0 0.726616)
(-1.31875 -8.74679e-18 0.766922)
(-1.39282 0 0.810216)
(-1.47059 8.73361e-18 0.855834)
(-1.55579 8.71945e-18 0.905824)
(-1.64599 0 0.958701)
(-1.74522 0 1.01703)
(-1.85064 0 1.07888)
(-1.96893 8.58537e-18 1.14874)
(-2.0967 -8.53643e-18 1.22387)
(-2.23947 -1.69682e-17 1.30862)
(-2.39886 0 1.40264)
(-2.57528 -1.6718e-17 1.50731)
(-2.77379 -3.31554e-17 1.62401)
(-2.98668 0 1.75421)
(-3.23241 -3.25461e-17 1.8951)
(-3.51381 0 2.0581)
(-3.83349 -1.59361e-17 2.24304)
(-4.19849 -3.15004e-17 2.45274)
(-4.61409 0 2.69533)
(-5.085 -3.06953e-17 2.97749)
(-5.62492 -3.02646e-17 3.29856)
(-6.24469 0 3.66566)
(-6.9551 0 4.08591)
(-7.77638 0 4.57246)
(-8.73521 2.8393e-17 5.14043)
(-9.84405 2.78899e-17 5.79592)
(-11.123 0 6.55512)
(-12.6436 -5.36811e-17 7.46529)
(-14.4721 -5.25849e-17 8.54965)
(-16.5648 0 9.77815)
(-18.898 0 11.1513)
(-21.6882 -4.91448e-17 12.8194)
(-25.2495 -6.48296e-21 14.9489)
(-29.4894 0 17.427)
(-33.6976 0 19.7963)
(-36.9993 0 21.5684)
(-38.9964 0 22.5798)
(-39.946 -1.67119e-22 23.036)
(-40.4209 8.22061e-17 23.2799)
(-40.8852 0 23.5559)
(-41.5216 0 23.9402)
(-42.3062 0 24.4029)
(-43.1484 7.34558e-17 24.8893)
(-43.9776 0 25.3623)
(-44.7664 1.38143e-16 25.8098)
(-45.5234 -1.33809e-16 26.2396)
(-46.2787 1.29513e-16 26.6704)
(-47.0659 -1.25256e-16 27.1212)
(-47.9082 2.42098e-16 27.6027)
(-48.8126 -1.16886e-16 28.1152)
(-49.7697 1.1278e-16 28.6758)
(-50.7849 0 29.272)
(-51.8601 0 29.8995)
(-52.9877 -2.01635e-16 30.5551)
(-54.1687 -1.93943e-16 31.2403)
(-55.3946 -1.86421e-16 31.9505)
(-56.6738 6.44701e-22 32.6911)
(-57.9919 0 33.4538)
(-59.3684 0 34.2499)
(-60.7759 -1.58074e-16 35.0638)
(-62.2513 0 35.9165)
(-63.7445 -2.89963e-16 36.7799)
(-65.3219 0 37.6909)
(-66.8936 -3.83437e-22 38.6002)
(-68.5802 0 39.5731)
(-70.2131 -2.42062e-16 40.5188)
(-72.0212 2.31031e-16 41.5609)
(-73.7031 2.20368e-16 42.5338)
(-75.5761 -2.49587e-22 43.619)
(-77.4875 0 44.711)
(-78.9683 3.81215e-16 45.5912)
(-81.8294 3.62819e-16 47.2104)
(-82.2075 3.45122e-16 47.4452)
(-85.6895 0 49.4748)
(-87.0251 1.15819e-20 50.1512)
(4.46393 0 -0.733161)
(4.43481 9.63168e-22 -0.802142)
(4.39358 0 -0.887328)
(4.26244 1.46546e-20 -0.999681)
(4.02816 5.08312e-20 -1.09686)
(3.71462 3.68321e-20 -1.15396)
(3.35747 0 -1.16767)
(2.99131 0 -1.14135)
(2.64102 -7.16347e-20 -1.079)
(2.31787 -8.28076e-20 -0.992058)
(2.02584 9.36469e-20 -0.892073)
(1.76324 2.08211e-19 -0.789882)
(1.52679 2.28315e-19 -0.691186)
(1.31319 0 -0.599322)
(1.12056 0 -0.515482)
(0.947517 5.6904e-19 -0.438944)
(0.792064 -3.38154e-22 -0.368233)
(0.651774 0 -0.302058)
(0.524089 -3.33404e-19 -0.239498)
(0.406496 -6.96561e-19 -0.179924)
(0.297027 -7.24777e-19 -0.123226)
(0.194294 0 -0.0694721)
(0.0972081 -7.77225e-19 -0.0184047)
(0.00551778 8.00743e-19 0.0301619)
(-0.0812987 8.23348e-19 0.0765203)
(-0.164202 -5.25545e-23 0.121396)
(-0.243244 0 0.164474)
(-0.319313 5.80254e-23 0.205659)
(-0.392389 0 0.245303)
(-0.461937 1.83173e-18 0.282925)
(-0.529186 0 0.319548)
(-0.594188 0 0.355879)
(-0.658168 0 0.39194)
(-0.722361 1.93853e-18 0.428903)
(-0.78694 0 0.466178)
(-0.852442 0 0.503826)
(-0.918353 0 0.541671)
(-0.984753 0 0.579491)
(-1.05144 -4.04261e-18 0.61777)
(-1.11931 8.13325e-18 0.656818)
(-1.18919 0 0.697582)
(-1.26221 4.10086e-18 0.740365)
(-1.33927 0 0.785689)
(-1.42079 0 0.833577)
(-1.50682 0 0.883974)
(-1.59754 -8.23773e-22 0.937461)
(-1.69527 0 0.994717)
(-1.79776 -8.23458e-18 1.05504)
(-1.90974 0 1.121)
(-2.02824 0 1.19074)
(-2.15852 -8.16889e-18 1.26765)
(-2.29678 0 1.34922)
(-2.45154 0 1.44142)
(-2.61864 -8.53789e-22 1.54032)
(-2.80518 1.59816e-17 1.65199)
(-3.01325 0 1.77559)
(-3.24376 -3.11002e-21 1.91324)
(-3.5031 3.12216e-17 2.066)
(-3.78062 0 2.24142)
(-4.10409 1.53152e-17 2.42618)
(-4.47215 0 2.64065)
(-4.89086 1.49917e-17 2.88441)
(-5.36907 2.96282e-17 3.16119)
(-5.91212 0 3.48441)
(-6.53118 2.88604e-17 3.85673)
(-7.2419 -2.6192e-23 4.28176)
(-8.05851 0 4.76836)
(-8.99588 0 5.32673)
(-10.0814 0 5.97473)
(-11.3494 -5.3343e-17 6.73143)
(-12.8175 3.90941e-22 7.60543)
(-14.5171 0 8.62176)
(-16.5402 5.04006e-17 9.84191)
(-18.9632 9.87219e-17 11.2903)
(-21.7379 0 12.9274)
(-24.8561 0 14.7753)
(-28.5932 0 17.0306)
(-33.2942 -5.71508e-21 19.8643)
(-38.7735 0 23.0702)
(-44.1177 0 26.0472)
(-48.271 0 28.2185)
(-50.793 0 29.4406)
(-52.0334 7.90213e-17 30.0072)
(-52.7011 7.70271e-17 30.344)
(-53.3553 0 30.7344)
(-54.2121 0 31.2555)
(-55.2392 0 31.8632)
(-56.325 -3.47518e-22 32.4895)
(-57.3818 0 33.0898)
(-58.3755 -1.2932e-16 33.6511)
(-59.3188 0 34.185)
(-60.2512 -1.21207e-16 34.7166)
(-61.216 0 35.2702)
(-62.2424 -1.13254e-16 35.859)
(-63.3391 0 36.4849)
(-64.4982 0 37.1637)
(-65.7226 0 37.8824)
(-67.0126 0 38.6354)
(-68.3576 1.88537e-16 39.4176)
(-69.758 0 40.2303)
(-71.201 1.74273e-16 41.0667)
(-72.6973 1.67382e-16 41.9331)
(-74.2248 0 42.8173)
(-75.8096 0 43.734)
(-77.4098 0 44.6597)
(-79.078 0 45.6239)
(-80.736 1.07989e-21 46.5831)
(-82.4831 0 47.5919)
(-84.1773 -4.956e-16 48.573)
(-86.002 0 49.6248)
(-87.6979 4.52188e-16 50.6086)
(-89.5981 -2.15776e-16 51.7028)
(-91.2765 -2.05805e-16 52.6741)
(-93.1428 -1.96188e-16 53.759)
(-95.0478 0 54.8373)
(-96.2493 0 55.5758)
(-99.2811 -6.7753e-16 57.2697)
(-98.9377 3.22225e-16 57.1005)
(-102.676 3.06261e-16 59.2966)
(-103.204 -2.90569e-16 59.4455)
(4.40211 0 -0.661571)
(4.34756 -6.87797e-21 -0.755192)
(4.31337 0 -0.836029)
(4.26027 0 -0.927962)
(4.15963 0 -1.02387)
(3.99828 0 -1.10865)
(3.78078 0 -1.16941)
(3.52258 5.6767e-20 -1.19795)
(3.2418 6.76179e-20 -1.19146)
(2.95474 1.56052e-19 -1.153)
(2.67228 -1.76466e-19 -1.08822)
(2.40144 -1.96531e-19 -1.00484)
(2.1453 -2.15505e-19 -0.913202)
(1.90439 0 -0.821195)
(1.6793 0 -0.733234)
(1.4709 -5.36341e-19 -0.650002)
(1.27914 -5.68875e-19 -0.570539)
(1.10293 0 -0.493877)
(0.940448 3.1467e-19 -0.419541)
(0.789383 6.57402e-19 -0.347374)
(0.647751 0 -0.277661)
(0.514126 7.08717e-19 -0.210796)
(0.387334 0 -0.146715)
(0.267064 -2.08775e-22 -0.0853163)
(0.152908 -7.7657e-19 -0.0264343)
(0.0439001 -1.37841e-22 0.0306724)
(-0.0601459 0 0.0857354)
(-0.160237 8.33081e-19 0.138503)
(-0.256524 -1.69934e-18 0.189412)
(-0.348508 -3.45576e-18 0.238037)
(-0.437362 -1.7579e-18 0.285392)
(-0.523261 0 0.332496)
(-0.60756 -1.80584e-18 0.379327)
(-0.691607 0 0.427108)
(-0.775814 0 0.475218)
(-0.860784 0 0.523606)
(-0.946042 0 0.572094)
(-1.03173 0 0.620476)
(-1.1176 -3.83531e-22 0.669384)
(-1.20466 -3.833e-18 0.719196)
(-1.29388 0 0.771094)
(-1.38661 -7.7288e-18 0.825401)
(-1.48398 0 0.882739)
(-1.58662 0 0.943119)
(-1.69466 0 1.00648)
(-1.80816 7.77061e-18 1.07359)
(-1.93009 0 1.14521)
(-2.05773 0 1.22062)
(-2.19683 0 1.30294)
(-2.34384 0 1.38989)
(-2.50531 1.53788e-17 1.48576)
(-2.67641 0 1.58735)
(-2.86764 0 1.702)
(-3.0739 7.56689e-18 1.82478)
(-3.30382 0 1.96357)
(-3.55995 0 2.11683)
(-3.84384 2.96159e-17 2.2877)
(-4.16286 -1.46814e-17 2.47713)
(-4.50626 0 2.69474)
(-4.9054 0 2.92607)
(-5.35856 0 3.19296)
(-5.87445 -1.40887e-17 3.49662)
(-6.46333 0 3.84231)
(-7.13394 0 4.24327)
(-7.8995 -5.42182e-17 4.70629)
(-8.77922 5.34396e-17 5.23644)
(-9.79071 0 5.84443)
(-10.9533 0 6.54323)
(-12.3015 0 7.35545)
(-13.8769 2.50331e-17 8.30399)
(-15.703 -2.45811e-17 9.40041)
(-17.8229 -4.82366e-17 10.6795)
(-20.347 -4.72812e-17 12.2156)
(-23.3613 -4.62993e-17 14.032)
(-26.8164 4.53013e-17 16.0841)
(-30.7231 0 18.4181)
(-35.4035 0 21.2712)
(-41.2136 4.2153e-17 24.8012)
(-47.8731 0 28.6984)
(-54.2918 0 32.2294)
(-59.2644 0 34.7542)
(-62.3164 0 36.1651)
(-63.8732 0 36.8414)
(-64.7567 -1.44271e-16 37.279)
(-65.609 0 37.7887)
(-66.6789 -6.82844e-17 38.4439)
(-67.9317 0 39.1874)
(-69.2391 -5.96471e-22 39.94)
(-70.4968 1.24875e-16 40.6505)
(-71.6618 0 41.3042)
(-72.7479 0 41.9159)
(-73.8027 0 42.5161)
(-74.8788 0 43.1343)
(-76.013 1.0592e-16 43.7866)
(-77.2163 0 44.4765)
(-78.4819 0 45.2198)
(-79.8111 0 46.001)
(-81.2015 0 46.8136)
(-82.6382 0 47.6502)
(-84.1208 0 48.5114)
(-85.6305 0 49.3873)
(-87.1798 0 50.285)
(-88.7367 -1.50119e-16 51.1869)
(-90.3347 0 52.1117)
(-91.9125 0 53.0253)
(-93.5424 0 53.9676)
(-95.1086 2.53073e-16 54.8749)
(-96.7536 0 55.8244)
(-98.2654 2.31448e-16 56.7019)
(-99.9101 0 57.6486)
(-101.31 -9.95839e-22 58.4637)
(-102.929 0 59.3946)
(-104.191 1.92177e-16 60.1254)
(-105.605 0 60.9553)
(-107.043 0 61.7496)
(-107.445 0 62.0531)
(-110.111 3.16273e-16 63.5041)
(-108.47 -6.01637e-16 62.6043)
(-111.939 -5.71809e-16 64.6618)
(-110.713 -2.7125e-16 63.7344)
(4.34612 0 -0.596901)
(4.28952 7.70329e-21 -0.695336)
(4.24442 0 -0.779024)
(4.19786 0 -0.858663)
(4.13963 -2.31444e-20 -0.942548)
(4.0557 -3.33803e-20 -1.02808)
(3.93654 4.35414e-20 -1.10629)
(3.78077 -1.60706e-19 -1.16637)
(3.59341 0 -1.20061)
(3.38285 -1.56053e-22 -1.20689)
(3.1578 8.30179e-20 -1.18759)
(2.92662 0 -1.14369)
(2.69355 0 -1.08095)
(2.46268 0 -1.00702)
(2.23647 0 -0.929802)
(2.01792 3.29349e-22 -0.85243)
(1.80936 3.00111e-22 -0.775077)
(1.61205 2.82299e-19 -0.69722)
(1.42596 2.96184e-19 -0.61882)
(1.2499 0 -0.540315)
(1.08249 -6.43899e-19 -0.462569)
(0.922747 -6.67886e-19 -0.386495)
(0.76968 0 -0.312439)
(0.6231 -2.53815e-22 -0.240589)
(0.482948 2.24953e-22 -0.171029)
(0.348525 -7.51093e-19 -0.103117)
(0.219679 0 -0.0371062)
(0.0953785 0 0.0265841)
(-0.0246981 1.60093e-18 0.0883528)
(-0.14003 6.10895e-23 0.147808)
(-0.25158 3.31147e-18 0.205872)
(-0.359529 0 0.263804)
(-0.465268 3.40147e-18 0.321578)
(-0.570237 0 0.380381)
(-0.675095 0 0.439585)
(-0.780555 -1.75608e-18 0.499017)
(-0.886233 0 0.558484)
(-0.992322 -3.56676e-18 0.617817)
(-1.09851 -2.82903e-22 0.677744)
(-1.2058 3.60841e-18 0.738715)
(-1.31524 0 0.802093)
(-1.42837 -1.48918e-22 0.868249)
(-1.5466 0 0.937884)
(-1.67076 0 1.011)
(-1.80116 0 1.08752)
(-1.93764 0 1.16843)
(-2.08389 0 1.25454)
(-2.23661 7.29475e-18 1.34509)
(-2.40262 0 1.44379)
(-2.57773 0 1.54788)
(-2.76988 -7.23018e-18 1.66262)
(-2.97305 0 1.78401)
(-3.19973 -7.15776e-18 1.92099)
(-3.44386 -7.11311e-18 2.06734)
(-3.71555 1.41334e-17 2.23296)
(-4.01776 0 2.41538)
(-4.35277 -1.39138e-17 2.61901)
(-4.72875 -1.37957e-17 2.84398)
(-5.13413 0 3.10527)
(-5.60715 0 3.3807)
(-6.1417 0 3.6984)
(-6.75025 1.32282e-17 4.06051)
(-7.44451 0 4.47345)
(-8.23683 0 4.94968)
(-9.14136 2.54425e-17 5.50234)
(-10.1821 -5.0147e-17 6.13593)
(-11.3797 0 6.8631)
(-12.7577 0 7.69982)
(-14.357 0 8.67342)
(-16.2262 0 9.81036)
(-18.3949 -2.30508e-17 11.1254)
(-20.9171 4.52263e-17 12.6633)
(-23.9189 0 14.5095)
(-27.4956 0 16.6849)
(-31.6012 -4.2456e-17 19.1427)
(-36.2638 0 21.9537)
(-41.836 -4.05147e-17 25.3873)
(-48.6711 3.94989e-17 29.5748)
(-56.4078 0 34.1013)
(-63.8181 0 38.1203)
(-69.577 0 40.9519)
(-73.1719 0 42.533)
(-75.075 0 43.3194)
(-76.1929 6.75217e-17 43.8619)
(-77.2395 0 44.4881)
(-78.4994 1.27803e-16 45.2651)
(-79.944 0 46.125)
(-81.4346 -7.50535e-22 46.9806)
(-82.8512 -1.69549e-21 47.7749)
(-84.1383 0 48.4901)
(-85.3054 1.09591e-16 49.1417)
(-86.4048 0 49.7645)
(-87.4979 0 50.3922)
(-88.6305 -1.98065e-16 51.0448)
(-89.818 0 51.7286)
(-91.0556 0 52.4594)
(-92.3429 0 53.2192)
(-93.6749 0 54.0003)
(-95.0311 0 54.7923)
(-96.4101 0 55.595)
(-97.7851 0 56.3942)
(-99.1708 0 57.1983)
(-100.522 1.40248e-16 57.9824)
(-101.882 0 58.7702)
(-103.164 0 59.5141)
(-104.466 0 60.2675)
(-105.625 -2.36364e-16 60.9408)
(-106.839 -2.26097e-16 61.6408)
(-107.805 -2.16141e-16 62.2056)
(-108.9 2.06492e-16 62.833)
(-109.593 -1.16943e-21 63.243)
(-110.516 -1.88144e-16 63.7706)
(-110.911 -3.58864e-16 64.0003)
(-111.409 0 64.3095)
(-111.895 3.25863e-16 64.5347)
(-111.012 3.10258e-16 64.1302)
(-112.758 0 65.0099)
(-109.35 2.8081e-16 63.1151)
(-112.061 2.6688e-16 64.7449)
(-108.295 2.53172e-16 62.3025)
(4.28978 0 -0.540384)
(4.2422 -3.88029e-21 -0.631247)
(4.19767 0 -0.716545)
(4.14624 0 -0.79277)
(4.09111 2.17977e-20 -0.867735)
(4.03025 3.14364e-20 -0.945096)
(3.95504 -4.10032e-20 -1.02267)
(3.85906 1.51534e-19 -1.09301)
(3.7405 0 -1.14797)
(3.60069 6.88855e-20 -1.18314)
(3.443 -1.55718e-19 -1.19763)
(3.27122 0 -1.19229)
(3.08951 1.90048e-19 -1.16723)
(2.89942 0 -1.12605)
(2.70367 2.22099e-19 -1.07308)
(2.50507 2.37462e-19 -1.01366)
(2.30685 2.51932e-19 -0.949551)
(2.11188 -2.65735e-19 -0.881153)
(1.92199 -5.574e-19 -0.808732)
(1.73753 0 -0.733036)
(1.55827 6.06069e-19 -0.655314)
(1.38404 0 -0.576942)
(1.21435 0 -0.49877)
(1.04928 -6.69701e-19 -0.42144)
(0.889314 1.37665e-18 -0.345402)
(0.734341 0 -0.270226)
(0.584538 0 -0.196205)
(0.439047 0 -0.123937)
(0.297423 -1.50596e-18 -0.0531987)
(0.160259 1.53146e-18 0.0155912)
(0.0269795 -3.77949e-22 0.0831651)
(-0.1024 1.57925e-18 0.150924)
(-0.229142 -3.1995e-18 0.218857)
(-0.354715 1.61915e-18 0.288038)
(-0.479988 -1.63523e-18 0.357832)
(-0.605809 1.53414e-22 0.427931)
(-0.731935 0 0.498105)
(-0.858613 3.35429e-18 0.56823)
(-0.985461 3.37396e-18 0.639069)
(-1.11331 -3.39294e-18 0.711134)
(-1.24321 0 0.785908)
(-1.3768 3.41953e-18 0.863818)
(-1.51578 3.4294e-18 0.945631)
(-1.66123 3.43339e-18 1.03135)
(-1.8137 3.43747e-18 1.12085)
(-1.97271 0 1.21535)
(-2.14274 0 1.31567)
(-2.31979 1.9261e-22 1.42104)
(-2.51179 0 1.53574)
(-2.71379 0 1.65645)
(-2.93524 -6.79181e-18 1.78952)
(-3.16875 6.75772e-18 1.92998)
(-3.42881 6.72217e-18 2.08855)
(-3.7084 -2.66847e-22 2.25744)
(-4.01892 6.29738e-22 2.44882)
(-4.36376 0 2.65904)
(-4.74598 0 2.89396)
(-5.17415 2.58989e-17 3.15247)
(-5.63661 0 3.45511)
(-6.17752 0 3.77322)
(-6.7866 -1.25566e-17 4.13887)
(-7.47972 0 4.55608)
(-8.27 0 5.03218)
(-9.17273 2.41933e-17 5.57925)
(-10.2032 -2.38596e-17 6.21657)
(-11.3901 4.70226e-17 6.94783)
(-12.757 0 7.78745)
(-14.3308 -2.27803e-17 8.75436)
(-16.1579 0 9.88015)
(-18.2934 0 11.1945)
(-20.7729 4.32031e-17 12.7155)
(-23.6589 0 14.4969)
(-27.09 0 16.6334)
(-31.171 0 19.143)
(-35.8631 0 21.9783)
(-41.2065 0 25.2334)
(-47.5658 3.79391e-17 29.1996)
(-55.2831 4.78474e-21 33.9715)
(-63.9427 -3.60099e-17 39.0369)
(-72.2286 3.50406e-17 43.4606)
(-78.7276 0 46.5455)
(-82.8765 0 48.2762)
(-85.1549 0 49.1707)
(-86.5203 0 49.8166)
(-87.7454 0 50.5477)
(-89.1554 -1.15268e-21 51.4238)
(-90.7389 0 52.3696)
(-92.3555 -5.63335e-17 53.2938)
(-93.8721 -1.86538e-21 54.1353)
(-95.2162 0 54.8714)
(-96.3855 -1.02465e-16 55.5146)
(-97.4307 0 56.1007)
(-98.4207 9.58244e-17 56.6675)
(-99.412 1.84488e-21 57.2393)
(-100.427 0 57.8269)
(-101.465 0 58.447)
(-102.526 0 59.0795)
(-103.602 0 59.7155)
(-104.666 1.53882e-16 60.3412)
(-105.716 0 60.9556)
(-106.716 0 61.5395)
(-107.683 1.36516e-16 62.1031)
(-108.557 0 62.6125)
(-109.393 -1.25626e-16 63.0987)
(-110.075 1.20398e-16 63.4972)
(-110.736 0 63.8799)
(-111.149 4.41457e-16 64.1249)
(-111.592 1.56184e-21 64.3783)
(-111.646 4.03645e-16 64.4194)
(-111.83 -1.92804e-16 64.5184)
(-111.43 -1.84084e-16 64.3005)
(-111.282 1.75657e-16 64.2086)
(-110.421 1.67515e-16 63.7106)
(-109.633 1.59664e-16 63.288)
(-108.773 -3.04199e-16 62.7119)
(-106.313 -2.8962e-16 61.4371)
(-106.694 -2.75596e-16 61.4813)
(-101.378 -2.62112e-16 58.5195)
(-102.965 0 59.4958)
(-96.4341 0 55.4393)
(4.23415 0 -0.489891)
(4.19379 -4.25474e-21 -0.570741)
(4.1566 0 -0.652817)
(4.10783 0 -0.728012)
(4.05224 0 -0.798021)
(3.99487 0 -0.868145)
(3.93248 3.89363e-20 -0.939783)
(3.86078 -4.7596e-20 -1.00918)
(3.77716 5.63734e-20 -1.07035)
(3.68053 -1.29675e-19 -1.1192)
(3.57119 1.46458e-19 -1.15383)
(3.45029 0 -1.17363)
(3.31921 -1.78731e-19 -1.17803)
(3.17856 0 -1.16877)
(3.02846 -2.0886e-19 -1.14679)
(2.86887 -2.22843e-19 -1.1138)
(2.70265 0 -1.07088)
(2.53234 0 -1.01973)
(2.36036 2.61965e-19 -0.961512)
(2.18788 0 -0.897327)
(2.0155 0 -0.828451)
(1.84384 -5.89872e-19 -0.75625)
(1.67287 0 -0.681813)
(1.50286 0 -0.606172)
(1.3348 -6.46986e-19 -0.530103)
(1.16927 0 -0.453426)
(1.00705 0 -0.37648)
(0.847729 0 -0.300011)
(0.69081 2.83071e-18 -0.224085)
(0.536957 0 -0.149216)
(0.386103 -4.02022e-22 -0.0749515)
(0.238701 -1.84063e-22 0.000145895)
(0.0938574 1.50329e-18 0.0760884)
(-0.0497803 -1.52155e-18 0.153762)
(-0.193206 3.07305e-18 0.232505)
(-0.337378 1.55181e-18 0.311856)
(-0.482228 0 0.391514)
(-0.628074 0 0.471399)
(-0.774484 3.16993e-18 0.552247)
(-0.921973 -3.18722e-18 0.634606)
(-1.07148 0 0.720007)
(-1.22453 0 0.808935)
(-1.38316 -1.29851e-22 0.902196)
(-1.54866 -3.22428e-18 0.999789)
(-1.72193 -3.22786e-18 1.10152)
(-1.90209 -6.45204e-18 1.20885)
(-2.09443 0 1.32259)
(-2.2941 8.95682e-23 1.44187)
(-2.51021 0 1.57165)
(-2.73686 0 1.70787)
(-2.98513 6.37439e-18 1.85811)
(-3.24609 -6.34181e-18 2.01621)
(-3.5362 0 2.19489)
(-3.84745 6.26748e-18 2.38449)
(-4.19231 4.16967e-22 2.59966)
(-4.57461 0 2.83533)
(-4.99817 0 3.09899)
(-5.47161 -2.42924e-17 3.38757)
(-5.98351 0 3.72799)
(-6.5834 0 4.08549)
(-7.25662 2.35467e-17 4.49459)
(-8.02215 0 4.9616)
(-8.89433 0 5.49466)
(-9.89072 -4.53526e-17 6.10532)
(-11.0285 2.23615e-17 6.81707)
(-12.3389 -2.20325e-17 7.6363)
(-13.8492 0 8.57681)
(-15.5887 2.1343e-17 9.66034)
(-17.6075 0 10.9221)
(-19.9665 -2.06116e-17 12.3946)
(-22.7068 -2.0232e-17 14.0986)
(-25.8964 0 16.0961)
(-29.6815 0 18.4877)
(-34.1766 3.80694e-17 21.2888)
(-39.3539 3.72348e-17 24.4527)
(-45.2581 0 28.0932)
(-52.2453 0 32.5114)
(-60.6412 -6.92378e-17 37.7597)
(-70.0106 3.36976e-17 43.242)
(-79.0085 -6.55777e-17 47.9638)
(-86.1703 0 51.234)
(-90.8687 0 53.0852)
(-93.5438 0 54.0791)
(-95.1625 0 54.8196)
(-96.5394 0 55.6357)
(-98.0443 -1.25382e-21 56.5778)
(-99.6944 0 57.5674)
(-101.36 0 58.5145)
(-102.9 -1.9599e-21 59.3564)
(-104.222 0 60.0638)
(-105.302 -9.57716e-17 60.6418)
(-106.181 0 61.1228)
(-106.931 -8.95541e-17 61.547)
(-107.619 1.88102e-21 61.944)
(-108.281 0 62.3308)
(-108.923 0 62.7273)
(-109.547 0 63.112)
(-110.145 0 63.4757)
(-110.685 -1.96431e-21 63.801)
(-111.163 1.38205e-16 64.087)
(-111.533 -1.3279e-16 64.309)
(-111.819 -1.27504e-16 64.4801)
(-111.94 0 64.5568)
(-111.975 1.17319e-16 64.5801)
(-111.767 -1.12431e-16 64.4665)
(-111.498 0 64.3122)
(-110.87 -2.06102e-16 63.9579)
(-110.257 3.94258e-16 63.5999)
(-109.108 -1.88432e-16 62.9497)
(-108.115 0 62.366)
(-106.356 1.71854e-16 61.3673)
(-104.911 0 60.5244)
(-102.578 0 59.1739)
(-100.356 -1.49042e-16 57.9364)
(-97.9813 0 56.4574)
(-93.9917 0 54.3427)
(-92.8131 2.57238e-16 53.4351)
(-85.9557 2.44645e-16 49.6245)
(-86.2472 2.325e-16 49.8335)
(-77.5569 -2.20571e-16 44.5406)
(4.17989 0 -0.44357)
(4.14369 3.99867e-21 -0.515503)