/*--------------------------------*- C++ -*----------------------------------*\
| =========                 |                                                 |
| \\      /  F ield         | OpenFOAM: The Open Source CFD Toolbox           |
|  \\    /   O peration     | Version:  2412                                  |
|   \\  /    A nd           | Website:  www.openfoam.com                      |
|    \\/     M anipulation  |                                                 |
\*---------------------------------------------------------------------------*/
FoamFile
{
    version     2.0;
    format      ascii;
    arch        "LSB;label=32;scalar=64";
    class       surfaceScalarField;
    location    "0.065";
    object      phi;
}
// * * * * * * * * * * * * * * * * * * * * * * * * * * * * * * * * * * * * * //

dimensions      [0 3 -1 0 0 0 0];

oriented        oriented;

internalField   nonuniform List<scalar> 
24930
(
0.0140509
0.0103085
-0.0243594
0.00794199
0.00610894
0.00533477
0.00260722
0.00416941
0.00116536
0.00351663
0.000652779
0.00308587
0.000430765
0.00277257
0.000313295
0.00253144
0.00024113
0.0023384
0.000193036
0.00217938
0.000159028
0.00204552
0.000133861
0.00193091
0.000114608
0.00183141
9.94977e-05
0.00174402
8.73861e-05
0.00166652
7.75024e-05
0.00159721
6.93106e-05
0.00153478
6.24276e-05
0.00147821
5.6575e-05
0.00142666
5.15463e-05
0.00137948
4.71844e-05
0.00133611
4.33686e-05
0.0012961
4.00051e-05
0.00125909
3.70193e-05
0.00122473
3.43514e-05
0.00119278
3.19534e-05
0.00116299
2.97858e-05
0.00113518
2.78163e-05
0.00110916
2.6018e-05
0.00108479
2.43686e-05
0.00106194
2.28493e-05
0.0010405
2.14439e-05
0.00102036
2.01388e-05
0.00100144
1.8922e-05
0.000983655
1.77832e-05
0.000966941
1.67139e-05
0.000951234
1.57068e-05
0.000936479
1.47554e-05
0.000922625
1.38535e-05
0.000909629
1.29957e-05
0.000897451
1.2178e-05
0.000886055
1.13963e-05
0.000875409
1.06459e-05
0.000865487
9.92247e-06
0.000856266
9.22124e-06
0.000847725
8.54052e-06
0.000839847
7.8778e-06
0.000832619
7.22774e-06
0.000826028
6.59135e-06
0.000820067
5.96152e-06
0.000814727
5.34e-06
0.000810004
4.72282e-06
0.0008059
4.10404e-06
0.000802407
3.49282e-06
0.000799536
2.87124e-06
0.000797284
2.2517e-06
0.000795665
1.61909e-06
0.000794692
9.72859e-07
0.000794379
3.12758e-07
0.000794738
-3.58702e-07
0.000795784
-1.0458e-06
0.000797549
-1.76499e-06
0.000800067
-2.51808e-06
0.000803374
-3.30734e-06
0.000807513
-4.13916e-06
0.000812533
-5.01977e-06
0.000818491
-5.9576e-06
0.000825453
-6.96265e-06
0.000833499
-8.04563e-06
0.00084272
-9.22124e-06
0.000853232
-1.05115e-05
0.000865166
-1.1934e-05
0.000878667
-1.35014e-05
0.000893925
-1.52581e-05
0.000911199
-1.72739e-05
0.000930759
-1.95603e-05
0.000952838
-2.2079e-05
0.000977775
-2.49363e-05
0.00100623
-2.84531e-05
0.00103904
-3.28166e-05
0.00107674
-3.76968e-05
0.0011191
-4.23593e-05
0.00116532
-4.62169e-05
0.00121455
-4.92303e-05
0.00126636
-5.18133e-05
0.00132082
-5.44559e-05
0.00137826
-5.74452e-05
0.0014391
-6.08369e-05
0.00150367
-6.45717e-05
0.00157225
-6.85829e-05
0.00164509
-7.28406e-05
0.00172245
-7.73524e-05
0.0018046
-8.21529e-05
0.00189189
-8.72921e-05
0.00198471
-9.28215e-05
0.0020835
-9.87828e-05
0.0021887
-0.000105204
0.00230081
-0.000112115
0.00242038
-0.00011956
0.00254795
-0.00012758
0.00268415
-0.000136198
0.00282964
-0.000145482
0.00298508
-0.000155448
0.00315128
-0.000166193
0.00332899
-0.000177712
0.00351915
-0.000190158
0.00372263
-0.00020348
0.00394052
-0.000217891
0.00417385
-0.000233336
0.00442383
-0.000249974
0.00469181
-0.000267981
0.00497887
-0.000287065
0.00528702
-0.000308147
0.0056172
-0.000330176
0.00597111
-0.000353919
0.00635292
-0.000381803
0.00675502
-0.000402106
0.00720191
-0.000446884
0.00764543
-0.000443525
0.00815686
-0.00051143
-0.0004753
0.0290847
0.0130883
-0.0318646
0.0238121
0.0113816
0.0189115
0.0075078
0.0154081
0.00466876
0.0130669
0.00299398
0.011448
0.00204968
0.0102646
0.00149664
0.00935601
0.00114975
0.00863091
0.000918137
0.00803494
0.000754998
0.00753404
0.000634761
0.00710566
0.000542988
0.00673413
0.000471032
0.00640813
0.00041338
0.00611928
0.000366352
0.0058612
0.000327393
0.00562895
0.000294678
0.00541865
0.000266877
0.00522719
0.000243005
0.00505206
0.000222311
0.00489121
0.000204219
0.00474294
0.000188282
0.00460581
0.000174144
0.00447864
0.000161519
0.00436042
0.000150178
0.00425027
0.000139934
0.00414746
0.000130631
0.00405133
0.000122143
0.00396134
0.000114362
0.00387699
0.000107198
0.00379786
0.000100576
0.00372357
9.44295e-05
0.00365379
8.87024e-05
0.00358822
8.33455e-05
0.00352662
7.83181e-05
0.00346874
7.35852e-05
0.00341438
6.91158e-05
0.00336335
6.48814e-05
0.00331549
6.08562e-05
0.00327065
5.70201e-05
0.00322869
5.3354e-05
0.0031895
4.9837e-05
0.00315298
4.64483e-05
0.00311903
4.31674e-05
0.00308759
3.99832e-05
0.00305858
3.68844e-05
0.00303196
3.38491e-05
0.00300767
3.08766e-05
0.0029857
2.79397e-05
0.00296599
2.50417e-05
0.00294855
2.21648e-05
0.00293337
1.92883e-05
0.00292042
1.64366e-05
0.00290975
1.35477e-05
0.00290134
1.06589e-05
0.00289524
7.72e-06
0.00289149
4.72e-06
0.00289016
1.64616e-06
0.00289127
-1.47103e-06
0.00289488
-4.65787e-06
0.00290112
-7.99943e-06
0.0029101
-1.14967e-05
0.00292195
-1.51638e-05
0.00293684
-1.90277e-05
0.00295494
-2.31201e-05
0.00297647
-2.74805e-05
0.00300166
-3.21572e-05
0.00303082
-3.72012e-05
0.00306428
-4.26858e-05
0.00310248
-4.87103e-05
0.0031459
-5.53559e-05
0.0031951
-6.27031e-05
0.00325081
-7.09697e-05
0.00331398
-8.04437e-05
0.00338558
-9.11577e-05
0.00346653
-0.00010303
0.00355825
-0.000116652
0.0036631
-0.000133308
0.00378376
-0.000153475
0.00392152
-0.000175452
0.00407526
-0.000196107
0.00424225
-0.000213198
0.00441984
-0.000226824
0.00460688
-0.000238851
0.00480374
-0.000251319
0.00501165
-0.000265361
0.00523198
-0.000281164
0.00546588
-0.000298465
0.00571428
-0.000316988
0.00597807
-0.00033663
0.00625817
-0.000357448
0.00655563
-0.000379616
0.0068717
-0.000403364
0.00720779
-0.000428912
0.00756546
-0.00045645
0.00794634
-0.000486086
0.00835222
-0.000517998
0.00878501
-0.000552345
0.00924674
-0.000589314
0.0097396
-0.000629053
0.0102659
-0.000671812
0.0108282
-0.000717722
0.0114292
-0.000767155
0.0120717
-0.000820203
0.0127589
-0.000877367
0.0134941
-0.000938703
0.014281
-0.00100481
0.0151235
-0.00107586
0.0160257
-0.0011521
0.0169925
-0.00123478
0.0180277
-0.00132229
0.0191384
-0.00141882
0.0203279
-0.00151969
0.0216026
-0.00162865
0.0229762
-0.00175538
0.024424
-0.00184996
0.0260316
-0.00205444
0.0276279
-0.00203989
0.0294827
-0.0023662
-0.00218972
0.0369858
0.0122847
-0.0361822
0.0350201
0.0133473
0.0312541
0.0112739
0.0273519
0.00857091
0.0240257
0.00632023
0.0213789
0.00469645
0.0192998
0.00357576
0.0176476
0.00280195
0.0163067
0.00225901
0.0151946
0.00186713
0.0142545
0.00157479
0.0134474
0.0013501
0.0127454
0.00117305
0.0121282
0.00103063
0.0115804
0.000914082
0.0110905
0.000817298
0.0106493
0.000735876
0.0102496
0.00066659
0.00988559
0.00060703
0.00955254
0.000555359
0.0092466
0.00051016
0.00896456
0.000470324
0.00870373
0.000434973
0.00846185
0.0004034
0.00823699
0.000375036
0.00802752
0.000349412
0.007832
0.000326144
0.00764923
0.000304914
0.00747814
0.000285455
0.00731779
0.000267543
0.00716738
0.000250986
0.00702619
0.000235622
0.00689359
0.000221308
0.00676901
0.000207923
0.00665196
0.000195364
0.006542
0.000183543
0.00643874
0.000172382
0.00634181
0.00016181
0.0062509
0.000151763
0.00616573
0.000142189
0.00608605
0.000133042
0.00601161
0.000124268
0.00594224
0.000115819
0.00587777
0.000107643
0.00581804
9.97112e-05
0.00576293
9.19933e-05
0.00571234
8.44407e-05
0.00566617
7.70453e-05
0.00562437
6.97427e-05
0.00558687
6.25403e-05
0.00555364
5.53922e-05
0.00552468
4.82519e-05
0.00549995
4.11641e-05
0.0054795
3.40006e-05
0.00546333
2.68262e-05
0.00545151
1.95405e-05
0.00544413
1.2102e-05
0.00544127
4.50129e-06
0.00544303
-3.22491e-06
0.00544951
-1.11442e-05
0.00546093
-1.94174e-05
0.00547751
-2.8077e-05
0.00549951
-3.71585e-05
0.00552721
-4.6728e-05
0.00556095
-5.68634e-05
0.00560114
-6.76677e-05
0.00564824
-7.92605e-05
0.00570281
-9.17723e-05
0.00576551
-0.00010539
0.00583716
-0.000120354
0.00591867
-0.000136869
0.00601114
-0.000155167
0.00611596
-0.000175797
0.00623493
-0.000199409
0.00636984
-0.000226072
0.00652257
-0.000255762
0.00669594
-0.000290016
0.00689428
-0.000331646
0.00712203
-0.000381225
0.00738093
-0.000434351
0.00766861
-0.000483788
0.00798017
-0.000524763
0.00831128
-0.000557928
0.00866019
-0.000587765
0.00902779
-0.000618924
0.00941633
-0.000653893
0.00982819
-0.000693026
0.0102654
-0.000735691
0.0107297
-0.000781275
0.0112226
-0.000829562
0.0117459
-0.000880735
0.0123015
-0.000935238
0.0128918
-0.000993624
0.0135193
-0.00105642
0.0141869
-0.00112405
0.0148976
-0.00119682
0.0156548
-0.00127512
0.0164618
-0.00135936
0.0173224
-0.00144994
0.0182406
-0.00154726
0.0192207
-0.00165187
0.0202671
-0.00176417
0.0213849
-0.00188491
0.0225792
-0.0020145
0.0238557
-0.00215386
0.0252204
-0.00230349
0.0266799
-0.00246429
0.0282414
-0.00263734
0.0299117
-0.00282243
0.0317002
-0.00302326
0.0336132
-0.00323532
0.0356635
-0.00346908
0.0378569
-0.00371303
0.0402043
-0.00397614
0.042731
-0.00428202
0.0453903
-0.00450928
0.0483417
-0.00500586
0.0512692
-0.00496734
0.0546797
-0.0057767
-0.00534856
0.041405
0.0105107
-0.039631
0.0419497
0.0128026
0.0405075
0.0127161
0.0378543
0.011224
0.0348244
0.00935022
0.0319159
0.00760488
0.0293345
0.00615716
0.0271154
0.00502105
0.0252239
0.00415055
0.0236068
0.00348417
0.0222129
0.00296874
0.0209996
0.00256342
0.0199336
0.00223899
0.0189893
0.00197499
0.0181463
0.00175701
0.0173889
0.00157468
0.0167044
0.00142042
0.0160824
0.00128855
0.0155147
0.00117477
0.0149943
0.00107576
0.0145155
0.000988934
0.0140736
0.000912252
0.0136645
0.000844085
0.0132848
0.000783116
0.0129315
0.000728278
0.0126022
0.000678688
0.0122948
0.000633622
0.0120072
0.000592473
0.0117379
0.000554734
0.0114855
0.000519978
0.0112486
0.000487841
0.0110262
0.000458009
0.0108173
0.00043021
0.0106211
0.000404211
0.0104366
0.000379811
0.0102633
0.000356841
0.0101005
0.000335152
0.00994774
0.000314607
0.00980442
0.000295081
0.00967014
0.000276474
0.00954449
0.000258694
0.00942711
0.000241643
0.0093177
0.000225227
0.009216
0.000209347
0.00912177
0.000193944
0.0090348
0.000178961
0.00895494
0.000164304
0.00888203
0.000149954
0.00881598
0.000135796
0.00875668
0.000121831
0.0087041
0.00010798
0.0086582
9.41506e-05
0.00861895
8.04099e-05
0.00858641
6.6545e-05
0.00856059
5.2647e-05
0.00854158
3.85489e-05
0.00852952
2.41638e-05
0.00852454
9.47555e-06
0.00852677
-5.4506e-06
0.00853639
-2.07644e-05
0.00855373
-3.67616e-05
0.00857915
-5.34908e-05
0.00861302
-7.10346e-05
0.00865581
-8.95175e-05
0.00870804
-0.000109093
0.00877034
-0.000129967
0.00884345
-0.000152366
0.00892823
-0.000176551
0.00902572
-0.000202887
0.0091372
-0.000231835
0.00926413
-0.000263792
0.00940822
-0.000299257
0.00957171
-0.000339293
0.00975736
-0.000385055
0.00996798
-0.000436693
0.0102066
-0.000494401
0.0104778
-0.000561183
0.010788
-0.00064185
0.0111434
-0.000736677
0.0115461
-0.000837034
0.0119922
-0.000929832
0.0124744
-0.00100697
0.0129867
-0.00107022
0.0135268
-0.00112793
0.0140964
-0.00118844
0.0146986
-0.00125612
0.0153371
-0.0013315
0.0160148
-0.00141341
0.0167343
-0.00150076
0.0174979
-0.0015932
0.0183083
-0.00169111
0.0191684
-0.00179535
0.0200817
-0.00190698
0.0210523
-0.00202696
0.0220843
-0.00215607
0.0231824
-0.00229489
0.0243514
-0.00244415
0.0255966
-0.00260458
0.0269236
-0.00277692
0.0283382
-0.0029619
0.0298469
-0.0031605
0.0314562
-0.00337354
0.0331736
-0.00360222
0.0350066
-0.00384753
0.0369635
-0.00411081
0.0390534
-0.00439335
0.0412853
-0.00469619
0.04367
-0.00502205
0.0462171
-0.00536947
0.0489402
-0.00574638
0.0518479
-0.00614302
0.0549586
-0.00657985
0.0582803
-0.00703468
0.0618274
-0.00752324
0.065639
-0.00809363
0.0696381
-0.00850843
0.0740727
-0.00944039
0.0784617
-0.00935641
0.0835683
-0.0108832
-0.0101108
0.0446093
0.00897249
-0.0430711
0.046143
0.0112689
0.0465288
0.0123303
0.0456285
0.0121244
0.0438287
0.01115
0.0415775
0.00985609
0.0392067
0.00852796
0.0369124
0.00731538
0.0347878
0.00627515
0.0328617
0.00541023
0.0311315
0.004699
0.0295801
0.00411483
0.0281867
0.00363232
0.0269313
0.00323043
0.0257958
0.00289255
0.0247646
0.00260585
0.0238246
0.00236042
0.0229646
0.00214858
0.022175
0.00196435
0.0214478
0.00180296
0.0207761
0.00166064
0.020154
0.00153436
0.0195764
0.00142165
0.0190391
0.00132049
0.0185381
0.00122923
0.0180703
0.0011465
0.0176328
0.00107115
0.017223
0.00100222
0.0168389
0.000938891
0.0164784
0.000880483
0.0161398
0.000826407
0.0158217
0.000776152
0.0155226
0.000729279
0.0152414
0.000685401
0.014977
0.000644192
0.0147285
0.000605371
0.0144949
0.000568692
0.0142756
0.000533929
0.0140698
0.000500875
0.0138769
0.000469363
0.0136964
0.00043924
0.0135277
0.000410346
0.0133704
0.000382526
0.0132241
0.000355615
0.0130886
0.000329511
0.0129634
0.000304119
0.0128484
0.000279286
0.0127434
0.000254972
0.0126482
0.000230991
0.0125627
0.000207339
0.0124868
0.000183886
0.0124205
0.000160478
0.0123637
0.000137211
0.0123164
0.000113756
0.0122789
9.02338e-05
0.012251
6.6394e-05
0.0122331
4.20818e-05
0.0122253
1.72617e-05
0.0122278
-7.97346e-06
0.0122409
-3.38719e-05
0.0122651
-6.08924e-05
0.0123007
-8.91361e-05
0.0123484
-0.000118751
0.0124089
-0.000149944
0.0124828
-0.000182982
0.012571
-0.000218213
0.0126747
-0.000256022
0.012795
-0.000296852
0.0129334
-0.000341325
0.0130918
-0.000390207
0.0132722
-0.000444187
0.0134771
-0.000504153
0.0137096
-0.000571886
0.0139738
-0.000649214
0.0142736
-0.000736441
0.0146134
-0.000834206
0.0149997
-0.000947502
0.0154414
-0.00108352
0.0159464
-0.00124168
0.0165168
-0.00140745
0.017147
-0.00156011
0.0178276
-0.00168755
0.0185506
-0.00179325
0.0193135
-0.00189075
0.0201182
-0.00199319
0.0209694
-0.00210733
0.0218719
-0.00223392
0.0228295
-0.00237109
0.0238459
-0.00251709
0.0249241
-0.00267141
0.0260677
-0.00283472
0.0272808
-0.00300846
0.0285682
-0.00319434
0.0299351
-0.00339392
0.0313875
-0.00360845
0.0329315
-0.00383888
0.0345738
-0.00408639
0.0363212
-0.00435207
0.0381814
-0.00463711
0.0401622
-0.00494267
0.0422719
-0.00527021
0.0445195
-0.00562111
0.0469143
-0.00599709
0.0494667
-0.00639989
0.0521871
-0.00683116
0.0550872
-0.00729347
0.0581785
-0.0077875
0.061475
-0.00831857
0.0649882
-0.00888265
0.068736
-0.00949416
0.0727277
-0.0101347
0.0769873
-0.0108394
0.0815233
-0.0115707
0.0863514
-0.0123514
0.0915271
-0.0132693
0.0969336
-0.0139149
0.102915
-0.0154222
0.108822
-0.0152633
0.115657
-0.0177182
-0.0165439
0.0477394
0.00786843
-0.0466353
0.0492844
0.00972386
0.0505068
0.0111079
0.0509218
0.0117094
0.0504736
0.0115982
0.0493404
0.0109893
0.0477616
0.0101067
0.0459504
0.00912657
0.0440624
0.00816324
0.0421958
0.00727677
0.0404054
0.00648944
0.0387179
0.00580229
0.0371432
0.00520706
0.0356811
0.00469255
0.0343265
0.00424709
0.0330724
0.00385999
0.0319108
0.00352203
0.0308338
0.00322549
0.0298342
0.00296396
0.028905
0.00273216
0.02804
0.00252568
0.0272335
0.00234088
0.0264804
0.00217471
0.0257763
0.00202462
0.0251171
0.00188846
0.0244991
0.00176442
0.0239193
0.00165095
0.0233748
0.00154676
0.022863
0.00145072
0.0223816
0.00136187
0.0219286
0.0012794
0.0215022
0.00120257
0.0211007
0.00113076
0.0207227
0.00106342
0.0203668
0.00100006
0.0200319
0.000940286
0.0197168
0.000883729
0.0194207
0.000830059
0.0191426
0.000778972
0.0188818
0.000730215
0.0186374
0.000683565
0.018409
0.000638784
0.0181959
0.000595645
0.0179976
0.000553895
0.0178137
0.000513384
0.0176439
0.000473958
0.0174878
0.000435398
0.0173451
0.00039763
0.0172157
0.000360385
0.0170994
0.00032364
0.0169961
0.000287206
0.0169057
0.000250848
0.0168283
0.000214692
0.0167637
0.000178267
0.0167123
0.000141721
0.016674
0.000104703
0.0166491
6.69695e-05
0.0166379
2.84493e-05
0.0166406
-1.07236e-05
0.0166577
-5.09357e-05
0.0166897
-9.28611e-05
0.0167372
-0.000136651
0.016801
-0.000182558
0.0168819
-0.0002309
0.0169811
-0.000282099
0.0170995
-0.00033669
0.0172388
-0.00039527
0.0174005
-0.000458531
0.0175866
-0.000527436
0.0177995
-0.000603159
0.0180421
-0.000686782
0.0183177
-0.00077974
0.0186306
-0.000884737
0.0189858
-0.00100446
0.0193889
-0.00113949
0.0198458
-0.00129117
0.0203653
-0.00146697
0.0209585
-0.00167678
0.0216353
-0.00191847
0.0223978
-0.00216996
0.0232389
-0.00240113
0.0241464
-0.00259508
0.0251108
-0.00275765
0.0261289
-0.00290883
0.0272034
-0.00306773
0.0283401
-0.00324402
0.029545
-0.00343877
0.0308231
-0.00364923
0.0321789
-0.00387285
0.0336163
-0.00410887
0.0351399
-0.00435831
0.0367548
-0.00462332
0.0384669
-0.00490646
0.040283
-0.00521002
0.0422104
-0.00553587
0.0442569
-0.0058854
0.0464308
-0.00626025
0.0487407
-0.00666205
0.051196
-0.00709235
0.0538062
-0.00755287
0.0565815
-0.00804553
0.0595328
-0.00857243
0.0626714
-0.00913565
0.0660094
-0.00973793
0.0695592
-0.0103809
0.0733347
-0.011069
0.0773488
-0.0118016
0.0816182
-0.0125879
0.0861546
-0.0134191
0.0909797
-0.0143193
0.0961015
-0.0152566
0.101549
-0.0162865
0.107328
-0.01735
0.113453
-0.0184769
0.119997
-0.0198128
0.126797
-0.0207149
0.134288
-0.0229132
0.141674
-0.0226489
0.150133
-0.0261775
-0.0245886
0.0511618
0.00705432
-0.0503477
0.0524077
0.00847798
0.0537462
0.00976942
0.0547761
0.0106794
0.0552583
0.011116
0.0551454
0.0111022
0.0545137
0.0107384
0.0534901
0.0101502
0.0522036
0.00944968
0.0507624
0.00871798
0.0492472
0.00800466
0.047714
0.00733547
0.0461998
0.00672125
0.0447285
0.0061639
0.0433138
0.00566173
0.0419633
0.00521056
0.0406799
0.00480541
0.0394642
0.0044412
0.0383149
0.00411322
0.0372299
0.0038172
0.0362062
0.00354932
0.0352409
0.00330625
0.0343305
0.00308504
0.033472
0.00288313
0.0326622
0.00269826
0.0318982
0.00252846
0.0311771
0.00237201
0.0304964
0.00222742
0.0298538
0.00209338
0.0292469
0.00196874
0.0286738
0.0018525
0.0281326
0.00174378
0.0276216
0.00164178
0.0271392
0.0015458
0.026684
0.00145523
0.0262548
0.00136954
0.0258502
0.00128826
0.0254694
0.00121094
0.0251111
0.0011372
0.0247747
0.00106669
0.0244591
0.000999099
0.0241638
0.000934122
0.023888
0.000871447
0.0236312
0.000810726
0.0233928
0.000751743
0.0231725
0.000694291
0.0229698
0.000638059
0.0227845
0.000582946
0.0226163
0.000528568
0.0224651
0.000474892
0.0223306
0.000421653
0.0222129
0.000368514
0.022112
0.000315636
0.0220279
0.000262376
0.0219607
0.000208915
0.0219106
0.000154776
0.021878
9.96044e-05
0.0218632
4.32807e-05
0.0218664
-1.40109e-05
0.0218884
-7.28425e-05
0.0219296
-0.000134141
0.0219911
-0.000198126
0.0220737
-0.000265181
0.0221786
-0.000335781
0.0223071
-0.00041054
0.0224606
-0.000490236
0.0226411
-0.000575734
0.0228506
-0.000668045
0.0230917
-0.000768571
0.0233675
-0.000878998
0.0236817
-0.00100092
0.0240384
-0.00113649
0.0244433
-0.00128956
0.0249027
-0.00146386
0.0254236
-0.00166042
0.0260139
-0.00188152
0.0266846
-0.00213759
0.0274492
-0.00244144
0.0283195
-0.00278877
0.0292979
-0.00314832
0.0303756
-0.00347883
0.0315383
-0.0037578
0.0327745
-0.00399386
0.0340803
-0.00421464
0.035459
-0.00444636
0.0369172
-0.00470229
0.0384624
-0.00498391
0.0401006
-0.0052875
0.0418373
-0.0056095
0.0436772
-0.00594878
0.0456256
-0.00630669
0.0476885
-0.00668623
0.0498729
-0.00709093
0.0521869
-0.00752402
0.0546391
-0.00798801
0.0572385
-0.00848487
0.0599951
-0.00901676
0.0629188
-0.00958576
0.0660202
-0.0101938
0.0693106
-0.0108432
0.0728013
-0.0115363
0.0765047
-0.0122758
0.080433
-0.013064
0.0845999
-0.0139048
0.0890184
-0.0147995
0.0937038
-0.0157544
0.098669
-0.0167667
0.103932
-0.0178511
0.109504
-0.0189907
0.115408
-0.0202233
0.121648
-0.0214971
0.128257
-0.0228951
0.135236
-0.0243295
0.142596
-0.025837
0.150421
-0.0276377
0.158509
-0.0288023
0.167355
-0.0317593
0.176077
-0.0313708
0.185919
-0.0360203
-0.0340473
0.0549083
0.00639687
-0.0542509
0.0558742
0.00751213
0.057039
0.00860464
0.0581856
0.00953281
0.0590935
0.0102081
0.0596265
0.0105692
0.0597447
0.0106202
0.0594775
0.0104175
0.0588894
0.0100378
0.0580545
0.00955286
0.0570414
0.00901773
0.0559073
0.0084696
0.0546972
0.00793135
0.0534452
0.00741585
0.0521778
0.0069292
0.0509142
0.00647415
0.0496685
0.00605104
0.0484509
0.0056589
0.047268
0.00529604
0.0461248
0.00496048
0.0450239
0.00465013
0.0439672
0.00436299
0.0429551
0.00409711
0.0419876
0.00385062
0.0410641
0.00362179
0.0401836
0.003409
0.0393448
0.00321077
0.0385465
0.00302573
0.0377872
0.00285265
0.0370656
0.00269042
0.03638
0.00253802
0.0357293
0.00239453
0.035112
0.00225911
0.0345268
0.002131
0.0339725
0.0020095
0.033448
0.00189404
0.0329522
0.00178406
0.0324841
0.00167906
0.0320427
0.00157856
0.0316272
0.00148216
0.0312368
0.00138949
0.0308708
0.00130017
0.0305284
0.00121382
0.0302092
0.00112999
0.0299125
0.00104841
0.029638
0.000968809
0.0293853
0.000890783
0.029154
0.000814212
0.028944
0.000738576
0.028755
0.000663834
0.0285871
0.000589638
0.02844
0.00051553
0.028314
0.000441715
0.028209
0.000367347
0.0281253
0.00029264
0.0280631
0.000216978
0.0280228
0.000139876
0.0280049
6.11367e-05
0.0280099
-1.89773e-05
0.0280383
-0.000101286
0.0280912
-0.00018701
0.0281695
-0.000276437
0.0282745
-0.000370134
0.0284075
-0.00046876
0.0285701
-0.00057317
0.0287643
-0.000684446
0.0289923
-0.000803777
0.0292569
-0.000932576
0.0295611
-0.00107277
0.0299088
-0.00122668
0.0303044
-0.00139654
0.0307533
-0.00158538
0.0312621
-0.0017984
0.0318389
-0.00204065
0.0324922
-0.00231376
0.0332319
-0.00262119
0.034071
-0.00297666
0.0350256
-0.00339611
0.0361095
-0.00387257
0.0373254
-0.00436424
0.0386636
-0.00481704
0.0401076
-0.00520187
0.0416441
-0.00553027
0.043268
-0.00583858
0.0449828
-0.00616117
0.0467962
-0.00651568
0.0487166
-0.00690427
0.0507512
-0.00732215
0.0529063
-0.00776458
0.0551874
-0.00822987
0.0576003
-0.00871958
0.0601516
-0.00923756
0.0628491
-0.00978844
0.0657016
-0.0103765
0.0687187
-0.0110051
0.0719105
-0.0116767
0.0752878
-0.0123941
0.0788617
-0.0131596
0.0826436
-0.0139757
0.0866453
-0.014845
0.0908791
-0.01577
0.0953575
-0.0167542
0.100093
-0.0177998
0.1051
-0.0189117
0.110391
-0.0200899
0.11598
-0.021344
0.12188
-0.0226664
0.128108
-0.0240795
0.134672
-0.0255544
0.141596
-0.0271474
0.148878
-0.0287789
0.156551
-0.0305679
0.16461
-0.0323885
0.17306
-0.0342871
0.181989
-0.0365667
0.191171
-0.0379845
0.201115
-0.0417031
0.21094
-0.041196
0.221824
-0.0469039
-0.0446149
0.0589495
0.00582998
-0.0583826
0.059726
0.00673558
0.0606855
0.00764511
0.0617336
0.00848478
0.062733
0.00920871
0.0635536
0.00974853
0.0641125
0.0100612
0.0643795
0.0101505
0.0643641
0.0100531
0.064099
0.00981801
0.063625
0.00949166
0.0629831
0.00911153
0.0622096
0.00870485
0.0613355
0.00828993
0.0603864
0.00787829
0.0593837
0.00747684
0.0583456
0.00708916
0.0572869
0.00671757
0.0562199
0.00636308
0.0551545
0.0060259
0.0540988
0.00570584
0.0530593
0.00540249
0.0520411
0.00511526
0.0510483
0.00484348
0.0500836
0.00458641
0.0491494
0.00434326
0.048247
0.0041132
0.0473773
0.0038954
0.0465409
0.00368906
0.0457379
0.00349337
0.0449684
0.00330758
0.044232
0.00313094
0.0435283
0.00296276
0.042857
0.00280236
0.0422173
0.00264913
0.0416089
0.00250249
0.041031
0.00236196
0.040483
0.00222702
0.0399644
0.00209718
0.0394745
0.00197204
0.0390128
0.0018512
0.0385787
0.00173426
0.0381717
0.00162079
0.0377915
0.00151028
0.0374375
0.0014024
0.0371094
0.00129686
0.0368071
0.00119314
0.0365301
0.00109113
0.0362785
0.000990166
0.0360522
0.000890205
0.035851
0.000790821
0.0356751
0.000691413
0.0355246
0.000592257
0.0353997
0.000492262
0.0353006
0.0003917
0.0352278
0.000289785
0.0351818
0.000185887
0.0351632
7.97304e-05
0.0351725
-2.834e-05
0.0352107
-0.000139466
0.0352789
-0.000255169
0.0353783
-0.000375826
0.0355104
-0.000502221
0.0356768
-0.000635244
0.0358797
-0.000776034
0.0361213
-0.000926024
0.0364043
-0.00108681
0.036732
-0.00126026
0.0371082
-0.00144893
0.0375374
-0.0016559
0.038025
-0.00188417
0.0385774
-0.00213779
0.0392025
-0.00242353
0.0399098
-0.00274797
0.0407097
-0.00311357
0.0416136
-0.00352514
0.0426369
-0.00399992
0.0437979
-0.0045571
0.0451121
-0.00518683
0.0465836
-0.00583576
0.0482021
-0.00643553
0.0499495
-0.00694921
0.0518102
-0.00739101
0.0537782
-0.00780655
0.0558565
-0.00823945
0.0580533
-0.00871248
0.0603779
-0.00922887
0.0628386
-0.00978287
0.0654423
-0.0103684
0.0681952
-0.0109828
0.0711033
-0.0116277
0.0741733
-0.0123076
0.0774132
-0.0130283
0.080832
-0.0137953
0.0844396
-0.0146127
0.0882468
-0.0154839
0.0922645
-0.0164118
0.0965042
-0.0173993
0.100977
-0.0184488
0.105696
-0.0195634
0.110671
-0.0207454
0.115916
-0.0219988
0.121441
-0.0233251
0.12726
-0.0247306
0.133383
-0.0262131
0.139825
-0.0277856
0.146592
-0.0294341
0.153704
-0.0311908
0.161159
-0.0330099
0.168984
-0.0349724
0.177167
-0.0369614
0.185741
-0.0391421
0.194692
-0.0413392
0.204021
-0.0436169
0.21381
-0.0463553
0.223835
-0.0480092
0.23456
-0.0524281
0.245203
-0.0518392
0.256752
-0.0584527
-0.0559506
0.0632812
0.00532406
-0.0627753
0.0639371
0.00607968
0.0647372
0.00684496
0.0656445
0.00757751
0.0665882
0.008265
0.0674768
0.00885995
0.0682296
0.00930845
0.0687947
0.00958546
0.069151
0.00969683
0.0693014
0.00966764
0.0692629
0.0095301
0.0690589
0.00931557
0.0687132
0.00905053
0.0682479
0.00875528
0.067682
0.00844418
0.0670321
0.00812676
0.0663122
0.00780898
0.0655357
0.00749409
0.0647143
0.00718453
0.0638585
0.00688169
0.0629778
0.0065865
0.0620808
0.0062995
0.0611751
0.006021
0.0602673
0.00575121
0.0593635
0.00549026
0.0584685
0.00523819
0.0575868
0.00499497
0.0567217
0.00476046
0.0558763
0.00453448
0.0550529
0.00431679
0.0542533
0.0041071
0.0534792
0.00390508
0.0527316
0.00371035
0.0520115
0.00352251
0.0513194
0.00334117
0.0506559
0.00316597
0.0500213
0.00299656
0.0494158
0.00283255
0.0488394
0.00267356
0.0482922
0.00251922
0.0477742
0.00236924
0.0472852
0.00222324
0.0468252
0.00208081
0.0463941
0.00194141
0.0459918
0.00180471
0.0456182
0.00167041
0.0452734
0.00153793
0.0449574
0.00140718
0.0446702
0.00127737
0.0444119
0.00114847
0.0441827
0.00101999
0.043983
0.00089119
0.0438128
0.000762427
0.0436727
0.000632355
0.0435631
0.000501315
0.0434845
0.000368339
0.0434378
0.00023264
0.0434236
9.38694e-05
0.0434428
-4.75253e-05
0.0434965
-0.000193116
0.043586
-0.000344695
0.0437129
-0.000502765
0.0438791
-0.00066834
0.0440864
-0.000842592
0.0443374
-0.00102698
0.0446347
-0.00122335
0.0449816
-0.00143376
0.045382
-0.0016606
0.0458402
-0.00190715
0.0463616
-0.00217733
0.0469525
-0.00247507
0.0476203
-0.00280554
0.048374
-0.00317726
0.0492246
-0.00359858
0.0501841
-0.00407302
0.0512658
-0.00460686
0.0524867
-0.00522079
0.053867
-0.00593743
0.0554243
-0.00674411
0.0571641
-0.00757553
0.0590764
-0.00834791
0.0611423
-0.00901511
0.0633445
-0.00959317
0.0656751
-0.0101371
0.0681363
-0.0107007
0.0707363
-0.0113125
0.073485
-0.0119775
0.0763913
-0.0126892
0.0794628
-0.0134398
0.0827059
-0.0142259
0.0861265
-0.0150483
0.0897309
-0.015912
0.0935264
-0.0168239
0.0975217
-0.0177905
0.101726
-0.0188172
0.10615
-0.0199079
0.110804
-0.0210659
0.115699
-0.0222944
0.120846
-0.0235956
0.126255
-0.0249727
0.131938
-0.0264274
0.137903
-0.0279643
0.144161
-0.0295835
0.150724
-0.0312928
0.157597
-0.0330862
0.164793
-0.0349818
0.172315
-0.0369559
0.180179
-0.0390545
0.188377
-0.0412084
0.196936
-0.043531
0.205832
-0.0458579
0.215102
-0.0484119
0.224719
-0.0509558
0.234687
-0.0535852
0.245069
-0.0567372
0.255671
-0.0586119
0.266872
-0.0636287
0.278058
-0.0630254
0.289952
-0.0703459
-0.0677711
0.0679198
0.00486317
-0.0674589
0.0684949
0.00550455
0.0691822
0.00615766
0.0699673
0.00679237
0.0708166
0.00741576
0.0716753
0.00800124
0.0724807
0.008503
0.0731805
0.00888569
0.073741
0.0091363
0.0741482
0.00926045
0.0744032
0.00927507
0.0745167
0.0092021
0.0745034
0.00906388
0.0743783
0.00888029
0.0741553
0.00866718
0.0738459
0.00843618
0.0734598
0.00819513
0.0730049
0.00794893
0.0724889
0.00770056
0.0719191
0.00745148
0.0713026
0.00720304
0.070646
0.00695603
0.0699561
0.00671093
0.0692392
0.00646812
0.0685015
0.00622794
0.067749
0.00599069
0.0669873
0.00575671
0.0662214
0.00552633
0.0654561
0.00529981
0.0646955
0.00507741
0.0639433
0.00485929
0.0632028
0.00464556
0.0624769
0.00443627
0.061768
0.00423138
0.0610784
0.00403084
0.0604098
0.00383458
0.0597638
0.00364252
0.0591418
0.00345453
0.058545
0.0032704
0.0579742
0.00308995
0.0574305
0.00291303
0.0569143
0.00273939
0.0564264
0.00256874
0.0559672
0.00240055
0.0555374
0.00223455
0.0551373
0.0020705
0.0547674
0.00190779
0.0544282
0.00174641
0.0541201
0.00158545
0.0538436
0.00142497
0.0535992
0.0012644
0.0533875
0.00110286
0.0532091
0.000940871
0.0530647
0.000776773
0.052955
0.000611052
0.0528808
0.000442508
0.0528432
0.000270212
0.0528433
9.37963e-05
0.052882
-8.62182e-05
0.0529608
-0.000271963
0.0530815
-0.000465387
0.0532459
-0.00066718
0.0534562
-0.0008786
0.0537147
-0.00110114
0.0540244
-0.00133661
0.0543883
-0.00158731
0.0548104
-0.0018558
0.0552949
-0.0021451
0.0558469
-0.00245922
0.0564727
-0.00280306
0.0571791
-0.00318155
0.0579747
-0.00360111
0.0588695
-0.00407209
0.0598758
-0.00460483
0.061007
-0.00520419
0.062278
-0.00587785
0.063707
-0.00664981
0.0653156
-0.00754605
0.067123
-0.00855152
0.0691368
-0.00958932
0.0713485
-0.0105596
0.0737392
-0.0114057
0.0762901
-0.0121441
0.0789915
-0.0128386
0.0818442
-0.0135534
0.0848556
-0.0143239
0.0880354
-0.0151573
0.0913929
-0.0160467
0.0949361
-0.0169831
0.0986716
-0.0179613
0.102605
-0.0189813
0.10674
-0.0200478
0.111085
-0.0211684
0.115645
-0.0223509
0.12043
-0.0236016
0.125447
-0.0249252
0.130707
-0.0263256
0.136218
-0.0278059
0.14199
-0.029368
0.148033
-0.0310149
0.154353
-0.0327475
0.160959
-0.0345707
0.167858
-0.0364825
0.175058
-0.0384927
0.182562
-0.0405902
0.19038
-0.0427997
0.198509
-0.0450848
0.206964
-0.0475092
0.21573
-0.0499747
0.224834
-0.0526349
0.234244
-0.0552682
0.243999
-0.0581668
0.254063
-0.0610199
0.264448
-0.0639698
0.275196
-0.0674851
0.28616
-0.0695761
0.297616
-0.075085
0.309151
-0.0745599
0.321201
-0.0823964
-0.0799269
0.0728876
0.00443671
-0.0724611
0.073405
0.0049871
0.0740119
0.00555077
0.0747025
0.00610178
0.0754617
0.00665659
0.076259
0.00720396
0.0770517
0.00771023
0.077796
0.00814145
0.0784559
0.00847636
0.0790087
0.00870767
0.0794447
0.00883903
0.0797652
0.00888166
0.079978
0.00885106
0.0800942
0.00876402
0.0801252
0.00863619
0.0800808
0.00848059
0.0799689
0.00830707
0.0797954